 Entering Gaussian System, Link 0=g09
 Input=Kick0002-opt.com
 Output=Kick0002-opt.log
 Initial command:
 /home/human/g09/l1.exe "/tmp/Gau-28342.inp" -scrdir="/tmp/"
 Entering Link 1 = /home/human/g09/l1.exe PID=     28349.
  
 Copyright (c) 1988,1990,1992,1993,1995,1998,2003,2009,2013,
            Gaussian, Inc.  All Rights Reserved.
  
 This is part of the Gaussian(R) 09 program.  It is based on
 the Gaussian(R) 03 system (copyright 2003, Gaussian, Inc.),
 the Gaussian(R) 98 system (copyright 1998, Gaussian, Inc.),
 the Gaussian(R) 94 system (copyright 1995, Gaussian, Inc.),
 the Gaussian 92(TM) system (copyright 1992, Gaussian, Inc.),
 the Gaussian 90(TM) system (copyright 1990, Gaussian, Inc.),
 the Gaussian 88(TM) system (copyright 1988, Gaussian, Inc.),
 the Gaussian 86(TM) system (copyright 1986, Carnegie Mellon
 University), and the Gaussian 82(TM) system (copyright 1983,
 Carnegie Mellon University). Gaussian is a federally registered
 trademark of Gaussian, Inc.
  
 This software contains proprietary and confidential information,
 including trade secrets, belonging to Gaussian, Inc.
  
 This software is provided under written license and may be
 used, copied, transmitted, or stored only in accord with that
 written license.
  
 The following legend is applicable only to US Government
 contracts under FAR:
  
                    RESTRICTED RIGHTS LEGEND
  
 Use, reproduction and disclosure by the US Government is
 subject to restrictions as set forth in subparagraphs (a)
 and (c) of the Commercial Computer Software - Restricted
 Rights clause in FAR 52.227-19.
  
 Gaussian, Inc.
 340 Quinnipiac St., Bldg. 40, Wallingford CT 06492
  
  
 ---------------------------------------------------------------
 Warning -- This program may not be used in any manner that
 competes with the business of Gaussian, Inc. or will provide
 assistance to any competitor of Gaussian, Inc.  The licensee
 of this program is prohibited from giving any competitor of
 Gaussian, Inc. access to this program.  By using this program,
 the user acknowledges that Gaussian, Inc. is engaged in the
 business of creating and licensing software in the field of
 computational chemistry and represents and warrants to the
 licensee that it is not a competitor of Gaussian, Inc. and that
 it will not use this program in any manner prohibited above.
 ---------------------------------------------------------------
  

 Cite this work as:
 Gaussian 09, Revision D.01,
 M. J. Frisch, G. W. Trucks, H. B. Schlegel, G. E. Scuseria, 
 M. A. Robb, J. R. Cheeseman, G. Scalmani, V. Barone, B. Mennucci, 
 G. A. Petersson, H. Nakatsuji, M. Caricato, X. Li, H. P. Hratchian, 
 A. F. Izmaylov, J. Bloino, G. Zheng, J. L. Sonnenberg, M. Hada, 
 M. Ehara, K. Toyota, R. Fukuda, J. Hasegawa, M. Ishida, T. Nakajima, 
 Y. Honda, O. Kitao, H. Nakai, T. Vreven, J. A. Montgomery, Jr., 
 J. E. Peralta, F. Ogliaro, M. Bearpark, J. J. Heyd, E. Brothers, 
 K. N. Kudin, V. N. Staroverov, T. Keith, R. Kobayashi, J. Normand, 
 K. Raghavachari, A. Rendell, J. C. Burant, S. S. Iyengar, J. Tomasi, 
 M. Cossi, N. Rega, J. M. Millam, M. Klene, J. E. Knox, J. B. Cross, 
 V. Bakken, C. Adamo, J. Jaramillo, R. Gomperts, R. E. Stratmann, 
 O. Yazyev, A. J. Austin, R. Cammi, C. Pomelli, J. W. Ochterski, 
 R. L. Martin, K. Morokuma, V. G. Zakrzewski, G. A. Voth, 
 P. Salvador, J. J. Dannenberg, S. Dapprich, A. D. Daniels, 
 O. Farkas, J. B. Foresman, J. V. Ortiz, J. Cioslowski, 
 and D. J. Fox, Gaussian, Inc., Wallingford CT, 2013.
 
 ******************************************
 Gaussian 09:  ES64L-G09RevD.01 24-Apr-2013
                25-Jul-2019 
 ******************************************
 %NProc=4
 Will use up to    4 processors via shared memory.
 %mem=4GB
 ----------------------------------------------------------------
 # PBE1PBE/SDDAll scf=(maxcycle=512) opt=(cartesian,maxcycle=512)
 ----------------------------------------------------------------
 1/6=512,10=7,14=-1,18=10,26=3,38=1/1,3;
 2/12=2,17=6,18=5,29=2,40=1/2;
 3/5=17,6=6,11=2,16=1,25=1,30=1,71=1,74=-13/1,2,3;
 4//1;
 5/5=2,7=512,38=5/2;
 6/7=2,8=2,9=2,10=2,28=1/1;
 7/7=1,29=1/1,2,3,16;
 1/6=512,10=7,14=-1,18=10,26=3/3(2);
 2/29=1/2;
 99/12=1/99;
 2/29=1/2;
 3/5=17,6=6,11=2,16=1,25=1,30=1,71=1,74=-13/1,2,3;
 4/5=5,16=3,69=1/1;
 5/5=2,7=512,38=5/2;
 7/7=1/1,2,3,16;
 1/6=512,14=-1,18=10,26=3/3(-5);
 2/29=1/2;
 6/7=2,8=2,9=2,10=2,19=2,28=1/1;
 99/9=1,12=1/99;
 ------------------------------------
 Cellular Automata job -34.4130305908
 ------------------------------------
 Symbolic Z-matrix:
 Charge =  0 Multiplicity = 1
 8                    -1.27719   0.0257   -0.0442 
 1                    -1.87284   0.73226   0.2645 
 1                    -1.70866  -0.8524   -0.00531 
 8                     1.42652  -0.1014    0.0422 
 1                     1.93562   0.67854  -0.22715 
 1                     0.45123   0.04724  -0.01606 
 

 GradGradGradGradGradGradGradGradGradGradGradGradGradGradGradGradGradGrad
 Berny optimization.
 Initialization pass.
 No Z-matrix variables, so optimization will use Cartesian coordinates.
 Trust Radius=3.00D-01 FncErr=1.00D-07 GrdErr=1.00D-06
 Number of steps in this run=    100 maximum allowed number of steps=    100.
 GradGradGradGradGradGradGradGradGradGradGradGradGradGradGradGradGradGrad

 ---------------------------------------------------------------------------------------------------
                            Z-MATRIX (ANGSTROMS AND DEGREES)
   CD    Cent   Atom    N1       Length/X        N2       Alpha/Y        N3        Beta/Z          J
 ---------------------------------------------------------------------------------------------------
      1      1  O        0  -1.277193          0.025697         -0.044200
      2      2  H        0  -1.872836          0.732258          0.264504
      3      3  H        0  -1.708663         -0.852398         -0.005310
      4      4  O        0   1.426523         -0.101403          0.042202
      5      5  H        0   1.935624          0.678544         -0.227150
      6      6  H        0   0.451234          0.047242         -0.016060
 ---------------------------------------------------------------------------------------------------
                         Z-Matrix orientation:                         
 ---------------------------------------------------------------------
 Center     Atomic      Atomic             Coordinates (Angstroms)
 Number     Number       Type             X           Y           Z
 ---------------------------------------------------------------------
      1          8           0       -1.277193    0.025697   -0.044200
      2          1           0       -1.872836    0.732258    0.264504
      3          1           0       -1.708663   -0.852398   -0.005310
      4          8           0        1.426523   -0.101403    0.042202
      5          1           0        1.935624    0.678544   -0.227150
      6          1           0        0.451234    0.047242   -0.016060
 ---------------------------------------------------------------------
                    Distance matrix (angstroms):
                    1          2          3          4          5
     1  O    0.000000
     2  H    0.974329   0.000000
     3  H    0.979147   1.615824   0.000000
     4  O    2.708080   3.410305   3.224227   0.000000
     5  H    3.283576   3.840440   3.959018   0.969563   0.000000
     6  H    1.728790   2.439111   2.339791   0.988270   1.626811
                    6
     6  H    0.000000
 Stoichiometry    H4O2
 Framework group  C1[X(H4O2)]
 Deg. of freedom    12
 Full point group                 C1      NOp   1
 Largest Abelian subgroup         C1      NOp   1
 Largest concise Abelian subgroup C1      NOp   1
                         Standard orientation:                         
 ---------------------------------------------------------------------
 Center     Atomic      Atomic             Coordinates (Angstroms)
 Number     Number       Type             X           Y           Z
 ---------------------------------------------------------------------
      1          8           0       -1.277193    0.025697   -0.044200
      2          1           0       -1.872836    0.732258    0.264504
      3          1           0       -1.708663   -0.852398   -0.005310
      4          8           0        1.426523   -0.101403    0.042202
      5          1           0        1.935624    0.678544   -0.227150
      6          1           0        0.451234    0.047242   -0.016060
 ---------------------------------------------------------------------
 Rotational constants (GHZ):    247.0865225      7.2957000      7.1203513
 Standard basis: SDDAll (6D, 10F)
 There are    30 symmetry adapted cartesian basis functions of A   symmetry.
 There are    30 symmetry adapted basis functions of A   symmetry.
    30 basis functions,    54 primitive gaussians,    30 cartesian basis functions
     8 alpha electrons        8 beta electrons
       nuclear repulsion energy        26.1101884965 Hartrees.
 NAtoms=    6 NActive=    6 NUniq=    6 SFac= 1.00D+00 NAtFMM=   60 NAOKFM=F Big=F
 Integral buffers will be    131072 words long.
 Raffenetti 2 integral format.
 Two-electron integral symmetry is turned on.
 One-electron integrals computed using PRISM.
   1 Symmetry operations used in ECPInt.
 ECPInt:  NShTT=     171 NPrTT=     619 LenC2=     172 LenP2D=     564.
 LDataN:  DoStor=T MaxTD1= 4 Len=   56
 NBasis=    30 RedAO= T EigKep=  3.49D-02  NBF=    30
 NBsUse=    30 1.00D-06 EigRej= -1.00D+00 NBFU=    30
 ExpMin= 7.02D-02 ExpMax= 4.71D+01 ExpMxC= 4.71D+01 IAcc=2 IRadAn=         4 AccDes= 0.00D+00
 Harris functional with IExCor= 1009 and IRadAn=       4 diagonalized for initial guess.
 HarFok:  IExCor= 1009 AccDes= 0.00D+00 IRadAn=         4 IDoV= 1 UseB2=F ITyADJ=14
 ICtDFT=  3500011 ScaDFX=  1.000000  1.000000  1.000000  1.000000
 FoFCou: FMM=F IPFlag=           0 FMFlag=      100000 FMFlg1=           0
         NFxFlg=           0 DoJE=T BraDBF=F KetDBF=T FulRan=T
         wScrn=  0.000000 ICntrl=     500 IOpCl=  0 I1Cent=   200000004 NGrid=           0
         NMat0=    1 NMatS0=      1 NMatT0=    0 NMatD0=    1 NMtDS0=    0 NMtDT0=    0
 Petite list used in FoFCou.
 Keep R1 ints in memory in canonical form, NReq=1237769.
 Requested convergence on RMS density matrix=1.00D-08 within 512 cycles.
 Requested convergence on MAX density matrix=1.00D-06.
 Requested convergence on             energy=1.00D-06.
 No special actions if energy rises.
 Integral accuracy reduced to 1.0D-05 until final iterations.
 Initial convergence to 1.0D-05 achieved.  Increase integral accuracy.
 SCF Done:  E(RPBE1PBE) =  -34.4130306004     A.U. after   12 cycles
            NFock= 12  Conv=0.45D-08     -V/T= 2.2668

 **********************************************************************

            Population analysis using the SCF density.

 **********************************************************************

 Orbital symmetries:
       Occupied  (A) (A) (A) (A) (A) (A) (A) (A)
       Virtual   (A) (A) (A) (A) (A) (A) (A) (A) (A) (A) (A) (A)
                 (A) (A) (A) (A) (A) (A) (A) (A) (A) (A)
 The electronic state is 1-A.
 Alpha  occ. eigenvalues --   -1.08257  -0.99913  -0.60218  -0.53426  -0.42655
 Alpha  occ. eigenvalues --   -0.36654  -0.33102  -0.28463
 Alpha virt. eigenvalues --    0.02666   0.08502   0.09395   0.12162   0.15394
 Alpha virt. eigenvalues --    0.16491   0.18530   0.21920   0.26365   0.32146
 Alpha virt. eigenvalues --    0.88352   1.00989   1.08555   1.11773   1.15391
 Alpha virt. eigenvalues --    1.17191   1.19448   1.22456   1.27226   1.29210
 Alpha virt. eigenvalues --    2.01939   2.51483
          Condensed to atoms (all electrons):
               1          2          3          4          5          6
     1  O    6.322018   0.277015   0.280000  -0.019840   0.001512  -0.002080
     2  H    0.277015   0.309023  -0.021532  -0.000044  -0.000036   0.000544
     3  H    0.280000  -0.021532   0.305587   0.001015   0.000002   0.000876
     4  O   -0.019840  -0.000044   0.001015   6.319687   0.279002   0.276171
     5  H    0.001512  -0.000036   0.000002   0.279002   0.360852  -0.022592
     6  H   -0.002080   0.000544   0.000876   0.276171  -0.022592   0.282809
 Mulliken charges:
               1
     1  O   -0.858625
     2  H    0.435030
     3  H    0.434052
     4  O   -0.855989
     5  H    0.381260
     6  H    0.464272
 Sum of Mulliken charges =   0.00000
 Mulliken charges with hydrogens summed into heavy atoms:
               1
     1  O    0.010457
     4  O   -0.010457
 Electronic spatial extent (au):  <R**2>=            148.2449
 Charge=              0.0000 electrons
 Dipole moment (field-independent basis, Debye):
    X=             -4.1123    Y=              1.7553    Z=              0.0793  Tot=              4.4719
 Quadrupole moment (field-independent basis, Debye-Ang):
   XX=             -8.4660   YY=            -10.6877   ZZ=            -15.4438
   XY=              4.3832   XZ=             -2.9725   YZ=              0.1705
 Traceless Quadrupole moment (field-independent basis, Debye-Ang):
   XX=              3.0665   YY=              0.8448   ZZ=             -3.9113
   XY=              4.3832   XZ=             -2.9725   YZ=              0.1705
 Octapole moment (field-independent basis, Debye-Ang**2):
  XXX=            -16.4418  YYY=              1.1472  ZZZ=              0.0278  XYY=             -5.1660
  XXY=              7.7507  XXZ=              0.2380  XZZ=             -1.2296  YZZ=              0.5152
  YYZ=              0.1207  XYZ=             -1.7498
 Hexadecapole moment (field-independent basis, Debye-Ang**3):
 XXXX=           -135.8172 YYYY=            -14.9439 ZZZZ=            -17.0104 XXXY=             15.1293
 XXXZ=            -11.4451 YYYX=              4.4952 YYYZ=              0.1730 ZZZX=             -2.1256
 ZZZY=              0.1127 XXYY=            -21.1847 XXZZ=            -34.4664 YYZZ=             -5.5930
 XXYZ=              0.5277 YYXZ=             -1.4712 ZZXY=              0.9168
 N-N= 2.611018849651D+01 E-N=-1.344034705582D+02  KE= 2.716591524032D+01
   1 Symmetry operations used in ECPInt.
 ECPInt:  NShTT=     171 NPrTT=     619 LenC2=     172 LenP2D=     564.
 LDataN:  DoStor=T MaxTD1= 5 Len=  102
 Calling FoFJK, ICntrl=      2127 FMM=F ISym2X=0 I1Cent= 0 IOpClX= 0 NMat=1 NMatS=1 NMatT=0.
 ***** Axes restored to original set *****
 -------------------------------------------------------------------
 Center     Atomic                   Forces (Hartrees/Bohr)
 Number     Number              X              Y              Z
 -------------------------------------------------------------------
      1        8          -0.008120048   -0.003672783    0.002746014
      2        1           0.002952463   -0.004190998   -0.001733644
      3        1           0.004752476    0.008502706   -0.000899051
      4        8          -0.001463497    0.002433551    0.000059964
      5        1          -0.000771108   -0.001635057   -0.000068163
      6        1           0.002649714   -0.001437421   -0.000105119
 -------------------------------------------------------------------
 Cartesian Forces:  Max     0.008502706 RMS     0.003593056

 GradGradGradGradGradGradGradGradGradGradGradGradGradGradGradGradGradGrad
 Berny optimization.
 Search for a local minimum.
 Step number   1 out of a maximum of  100
 All quantities printed in internal units (Hartrees-Bohrs-Radians)
 Second derivative matrix not updated -- first step.
 The second derivative matrix:
                          X1        Y1        Z1        X2        Y2
           X1           0.40887
           Y1          -0.01047   0.69375
           Z1          -0.14884   0.09598   0.06643
           X2          -0.24842   0.22415   0.11937   0.22043
           Y2           0.18339  -0.28424  -0.10391  -0.20986   0.29775
           Z2           0.11396  -0.11861  -0.05686  -0.10738   0.11525
           X3          -0.16046  -0.21367   0.02946   0.02799   0.02647
           Y3          -0.17292  -0.40951   0.00793  -0.01429  -0.01351
           Z3           0.03488   0.02263  -0.00957  -0.01199  -0.01134
           X4           0.00000   0.00000   0.00000   0.00000   0.00000
           Y4           0.00000   0.00000   0.00000   0.00000   0.00000
           Z4           0.00000   0.00000   0.00000   0.00000   0.00000
           X5           0.00000   0.00000   0.00000   0.00000   0.00000
           Y5           0.00000   0.00000   0.00000   0.00000   0.00000
           Z5           0.00000   0.00000   0.00000   0.00000   0.00000
           X6           0.00000   0.00000   0.00000   0.00000   0.00000
           Y6           0.00000   0.00000   0.00000   0.00000   0.00000
           Z6           0.00000   0.00000   0.00000   0.00000   0.00000
                          Z2        X3        Y3        Z3        X4
           Z2           0.05404
           X3          -0.00658   0.13246
           Y3           0.00336   0.18720   0.42302
           Z3           0.00282  -0.02289  -0.01129   0.00675
           X4           0.00000   0.00000   0.00000   0.00000   0.65539
           Y4           0.00000   0.00000   0.00000   0.00000   0.10541
           Z4           0.00000   0.00000   0.00000   0.00000  -0.03261
           X5           0.00000   0.00000   0.00000   0.00000  -0.17551
           Y5           0.00000   0.00000   0.00000   0.00000  -0.20953
           Z5           0.00000   0.00000   0.00000   0.00000   0.07211
           X6           0.00000   0.00000   0.00000   0.00000  -0.47989
           Y6           0.00000   0.00000   0.00000   0.00000   0.10412
           Z6           0.00000   0.00000   0.00000   0.00000  -0.03950
                          Y4        Z4        X5        Y5        Z5
           Y4           0.45178
           Z4          -0.15724   0.05476
           X5          -0.16872   0.05784   0.18193
           Y5          -0.37914   0.13118   0.20580   0.35762
           Z5           0.13144  -0.04548  -0.07077  -0.12368   0.04278
           X6           0.06331  -0.02523  -0.00642   0.00373  -0.00134
           Y6          -0.07264   0.02606  -0.03708   0.02153  -0.00776
           Z6           0.02580  -0.00927   0.01292  -0.00750   0.00271
                          X6        Y6        Z6
           X6           0.48631
           Y6          -0.06704   0.05111
           Z6           0.02658  -0.01830   0.00657
 ITU=  0
     Eigenvalues ---    0.00000   0.00000   0.00000   0.00000   0.00000
     Eigenvalues ---    0.00000   0.15177   0.15636   0.79291   0.84307
     Eigenvalues ---    1.06662   1.12854
 RFO step:  Lambda=-1.93167925D-03 EMin=-8.88178420D-16
 Linear search not attempted -- first point.
 Maximum step size (   0.300) exceeded in Quadratic search.
    -- Step size scaled by   0.322
 TrRot=  0.005227  0.016567  0.030230  2.079258  0.010013 -2.080732
 Variable       Old X    -DE/DX   Delta X   Delta X   Delta X     New X
                                 (Linear)    (Quad)   (Total)
    X1       -2.41354  -0.00812   0.00000  -0.02180  -0.01615  -2.42970
    Y1        0.04856  -0.00367   0.00000   0.05856   0.07826   0.12682
    Z1       -0.08353   0.00275   0.00000   0.03796   0.05535  -0.02817
    X2       -3.53915   0.00295   0.00000  -0.13411  -0.12937  -3.66852
    Y2        1.38377  -0.00419   0.00000  -0.03478  -0.00835   1.37542
    Z2        0.49984  -0.00173   0.00000   0.02355   0.02402   0.52386
    X3       -3.22891   0.00475   0.00000   0.07147   0.07485  -3.15405
    Y3       -1.61080   0.00850   0.00000   0.01348   0.03380  -1.57700
    Z3       -0.01003  -0.00090   0.00000  -0.09291  -0.06415  -0.07419
    X4        2.69574  -0.00146   0.00000   0.04484   0.04901   2.74475
    Y4       -0.19162   0.00243   0.00000   0.01118   0.02512  -0.16650
    Z4        0.07975   0.00006   0.00000   0.07498   0.12017   0.19992
    X5        3.65780  -0.00077   0.00000  -0.02706  -0.01728   3.64052
    Y5        1.28226  -0.00164   0.00000  -0.01275  -0.00637   1.27590
    Z5       -0.42925  -0.00007   0.00000  -0.12638  -0.08947  -0.51872
    X6        0.85271   0.00265   0.00000   0.03325   0.03894   0.89164
    Y6        0.08927  -0.00144   0.00000  -0.13678  -0.12247  -0.03319
    Z6       -0.03035  -0.00011   0.00000  -0.08090  -0.04592  -0.07626
         Item               Value     Threshold  Converged?
 Maximum Force            0.008503     0.000450     NO 
 RMS     Force            0.003593     0.000300     NO 
 Maximum Displacement     0.129369     0.001800     NO 
 RMS     Displacement     0.067550     0.001200     NO 
 Predicted change in Energy=-6.054816D-04
 GradGradGradGradGradGradGradGradGradGradGradGradGradGradGradGradGradGrad

                          Input orientation:                          
 ---------------------------------------------------------------------
 Center     Atomic      Atomic             Coordinates (Angstroms)
 Number     Number       Type             X           Y           Z
 ---------------------------------------------------------------------
      1          8           0       -1.285742    0.067112   -0.014909
      2          1           0       -1.941295    0.727839    0.277213
      3          1           0       -1.669052   -0.834514   -0.039257
      4          8           0        1.452457   -0.088107    0.105794
      5          1           0        1.926482    0.675176   -0.274497
      6          1           0        0.471838   -0.017565   -0.040358
 ---------------------------------------------------------------------
                    Distance matrix (angstroms):
                    1          2          3          4          5
     1  O    0.000000
     2  H    0.975523   0.000000
     3  H    0.980025   1.617163   0.000000
     4  O    2.745249   3.494668   3.212784   0.000000
     5  H    3.279559   3.907283   3.906708   0.975665   0.000000
     6  H    1.759802   2.545523   2.291466   0.993957   1.628097
                    6
     6  H    0.000000
 Stoichiometry    H4O2
 Framework group  C1[X(H4O2)]
 Deg. of freedom    12
 Full point group                 C1      NOp   1
 Largest Abelian subgroup         C1      NOp   1
 Largest concise Abelian subgroup C1      NOp   1
                         Standard orientation:                         
 ---------------------------------------------------------------------
 Center     Atomic      Atomic             Coordinates (Angstroms)
 Number     Number       Type             X           Y           Z
 ---------------------------------------------------------------------
      1          8           0       -1.292661    0.034112   -0.035043
      2          1           0       -1.953114    0.679161    0.280170
      3          1           0       -1.665826   -0.870967   -0.080086
      4          8           0        1.448099   -0.092261    0.057997
      5          1           0        1.909958    0.686319   -0.305900
      6          1           0        0.465477   -0.029327   -0.077810
 ---------------------------------------------------------------------
 Rotational constants (GHZ):    244.2145213      7.1131800      6.9581521
 Standard basis: SDDAll (6D, 10F)
 There are    30 symmetry adapted cartesian basis functions of A   symmetry.
 There are    30 symmetry adapted basis functions of A   symmetry.
    30 basis functions,    54 primitive gaussians,    30 cartesian basis functions
     8 alpha electrons        8 beta electrons
       nuclear repulsion energy        25.9136471102 Hartrees.
 NAtoms=    6 NActive=    6 NUniq=    6 SFac= 1.00D+00 NAtFMM=   60 NAOKFM=F Big=F
 Integral buffers will be    131072 words long.
 Raffenetti 2 integral format.
 Two-electron integral symmetry is turned on.
 One-electron integrals computed using PRISM.
   1 Symmetry operations used in ECPInt.
 ECPInt:  NShTT=     171 NPrTT=     619 LenC2=     172 LenP2D=     564.
 LDataN:  DoStor=T MaxTD1= 4 Len=   56
 NBasis=    30 RedAO= T EigKep=  3.45D-02  NBF=    30
 NBsUse=    30 1.00D-06 EigRej= -1.00D+00 NBFU=    30
 Initial guess from the checkpoint file:  "/tmp/Gau-28349.chk"
 B after Tr=     0.000000    0.000000    0.000000
         Rot=    0.999979   -0.005679    0.000099   -0.003133 Ang=  -0.74 deg.
 ExpMin= 7.02D-02 ExpMax= 4.71D+01 ExpMxC= 4.71D+01 IAcc=2 IRadAn=         4 AccDes= 0.00D+00
 Harris functional with IExCor= 1009 and IRadAn=       4 diagonalized for initial guess.
 HarFok:  IExCor= 1009 AccDes= 0.00D+00 IRadAn=         4 IDoV= 1 UseB2=F ITyADJ=14
 ICtDFT=  3500011 ScaDFX=  1.000000  1.000000  1.000000  1.000000
 FoFCou: FMM=F IPFlag=           0 FMFlag=      100000 FMFlg1=           0
         NFxFlg=           0 DoJE=T BraDBF=F KetDBF=T FulRan=T
         wScrn=  0.000000 ICntrl=     500 IOpCl=  0 I1Cent=   200000004 NGrid=           0
         NMat0=    1 NMatS0=      1 NMatT0=    0 NMatD0=    1 NMtDS0=    0 NMtDT0=    0
 Petite list used in FoFCou.
 Keep R1 ints in memory in canonical form, NReq=1237769.
 Requested convergence on RMS density matrix=1.00D-08 within 512 cycles.
 Requested convergence on MAX density matrix=1.00D-06.
 Requested convergence on             energy=1.00D-06.
 No special actions if energy rises.
 Integral accuracy reduced to 1.0D-05 until final iterations.
 Initial convergence to 1.0D-05 achieved.  Increase integral accuracy.
 SCF Done:  E(RPBE1PBE) =  -34.4125033380     A.U. after   11 cycles
            NFock= 11  Conv=0.68D-08     -V/T= 2.2684
   1 Symmetry operations used in ECPInt.
 ECPInt:  NShTT=     171 NPrTT=     619 LenC2=     172 LenP2D=     564.
 LDataN:  DoStor=T MaxTD1= 5 Len=  102
 Calling FoFJK, ICntrl=      2127 FMM=F ISym2X=0 I1Cent= 0 IOpClX= 0 NMat=1 NMatS=1 NMatT=0.
 ***** Axes restored to original set *****
 -------------------------------------------------------------------
 Center     Atomic                   Forces (Hartrees/Bohr)
 Number     Number              X              Y              Z
 -------------------------------------------------------------------
      1        8          -0.007888107   -0.007682752   -0.000294693
      2        1           0.005272041   -0.003963845   -0.001476678
      3        1           0.002905643    0.009597466    0.000368923
      4        8          -0.005026488    0.004748660   -0.005292047
      5        1          -0.003322467   -0.005646948    0.002345370
      6        1           0.008059378    0.002947420    0.004349125
 -------------------------------------------------------------------
 Cartesian Forces:  Max     0.009597466 RMS     0.005188210

 GradGradGradGradGradGradGradGradGradGradGradGradGradGradGradGradGradGrad
 Berny optimization.
 Search for a local minimum.
 Step number   2 out of a maximum of  100
 All quantities printed in internal units (Hartrees-Bohrs-Radians)
 Update second derivatives using D2CorN and points    2    1
 DE=  5.27D-04 DEPred=-6.05D-04 R=-8.71D-01
 Trust test=-8.71D-01 RLast= 2.87D-01 DXMaxT set to 1.50D-01
 The second derivative matrix:
                          X1        Y1        Z1        X2        Y2
           X1           0.40845
           Y1          -0.00993   0.69851
           Z1          -0.14833   0.09876   0.06798
           X2          -0.24979   0.21854   0.11638   0.22597
           Y2           0.18318  -0.28399  -0.10367  -0.21051   0.29764
           Z2           0.11424  -0.11771  -0.05641  -0.10817   0.11539
           X3          -0.15952  -0.21110   0.03073   0.02589   0.02692
           Y3          -0.17214  -0.41008   0.00727  -0.01237  -0.01312
           Z3           0.03414   0.02014  -0.01085  -0.00973  -0.01169
           X4           0.00022   0.00360   0.00218  -0.00453   0.00009
           Y4           0.00070  -0.00099  -0.00089   0.00236   0.00035
           Z4           0.00102   0.00643   0.00365  -0.00717   0.00047
           X5          -0.00051   0.00084   0.00072  -0.00188  -0.00026
           Y5          -0.00057   0.00217   0.00158  -0.00377  -0.00029
           Z5          -0.00092  -0.00402  -0.00218   0.00408  -0.00043
           X6           0.00116  -0.00195  -0.00167   0.00435   0.00058
           Y6          -0.00124  -0.00561  -0.00305   0.00575  -0.00058
           Z6          -0.00016  -0.00359  -0.00220   0.00461  -0.00006
                          Z2        X3        Y3        Z3        X4
           Z2           0.05414
           X3          -0.00633   0.13304
           Y3           0.00294   0.18581   0.42164
           Z3           0.00252  -0.02365  -0.01021   0.00764
           X4           0.00075   0.00221  -0.00009  -0.00206   0.65803
           Y4          -0.00048  -0.00158  -0.00127   0.00126   0.10499
           Z4           0.00111   0.00312  -0.00125  -0.00311  -0.02764
           X5           0.00038   0.00124   0.00094  -0.00100  -0.17512
           Y5           0.00071   0.00223   0.00115  -0.00189  -0.20822
           Z5          -0.00059  -0.00160   0.00126   0.00169   0.06888
           X6          -0.00088  -0.00285  -0.00215   0.00230  -0.48080
           Y6          -0.00084  -0.00228   0.00168   0.00239   0.09964
           Z6          -0.00077  -0.00228  -0.00001   0.00212  -0.04211
                          Y4        Z4        X5        Y5        Z5
           Y4           0.45065
           Z4          -0.15904   0.06329
           X5          -0.16789   0.05932   0.18133
           Y5          -0.37824   0.13458   0.20517   0.35723
           Z5           0.13303  -0.05067  -0.07204  -0.12627   0.04576
           X6           0.06143  -0.02866  -0.00505   0.00516   0.00159
           Y6          -0.07050   0.01881  -0.03880   0.01799  -0.00356
           Z6           0.02612  -0.01428   0.01261  -0.00871   0.00598
                          X6        Y6        Z6
           X6           0.48319
           Y6          -0.06307   0.05702
           Z6           0.02732  -0.01376   0.00915
 ITU= -1  0
 Energy rises -- skip Quadratic search.
 Quartic linear search produced a step of -0.71476.
 TrRot=  0.000000  0.000000  0.000000  0.000000  0.000000  0.000000
 Variable       Old X    -DE/DX   Delta X   Delta X   Delta X     New X
                                 (Linear)    (Quad)   (Total)
    X1       -2.42970  -0.00789   0.01155   0.00000   0.01155  -2.41815
    Y1        0.12682  -0.00768  -0.05594   0.00000  -0.05594   0.07088
    Z1       -0.02817  -0.00029  -0.03956   0.00000  -0.03956  -0.06774
    X2       -3.66852   0.00527   0.09247   0.00000   0.09247  -3.57605
    Y2        1.37542  -0.00396   0.00597   0.00000   0.00597   1.38138
    Z2        0.52386  -0.00148  -0.01717   0.00000  -0.01717   0.50669
    X3       -3.15405   0.00291  -0.05350   0.00000  -0.05350  -3.20755
    Y3       -1.57700   0.00960  -0.02416   0.00000  -0.02416  -1.60116
    Z3       -0.07419   0.00037   0.04585   0.00000   0.04585  -0.02833
    X4        2.74475  -0.00503  -0.03503   0.00000  -0.03503   2.70972
    Y4       -0.16650   0.00475  -0.01796   0.00000  -0.01796  -0.18446
    Z4        0.19992  -0.00529  -0.08589   0.00000  -0.08589   0.11403
    X5        3.64052  -0.00332   0.01235   0.00000   0.01235   3.65287
    Y5        1.27590  -0.00565   0.00455   0.00000   0.00455   1.28045
    Z5       -0.51872   0.00235   0.06395   0.00000   0.06395  -0.45477
    X6        0.89164   0.00806  -0.02783   0.00000  -0.02783   0.86381
    Y6       -0.03319   0.00295   0.08754   0.00000   0.08754   0.05434
    Z6       -0.07626   0.00435   0.03282   0.00000   0.03282  -0.04345
         Item               Value     Threshold  Converged?
 Maximum Force            0.009597     0.000450     NO 
 RMS     Force            0.005188     0.000300     NO 
 Maximum Displacement     0.092468     0.001800     NO 
 RMS     Displacement     0.048282     0.001200     NO 
 Predicted change in Energy=-1.336072D-04
 GradGradGradGradGradGradGradGradGradGradGradGradGradGradGradGradGradGrad

                          Input orientation:                          
 ---------------------------------------------------------------------
 Center     Atomic      Atomic             Coordinates (Angstroms)
 Number     Number       Type             X           Y           Z
 ---------------------------------------------------------------------
      1          8           0       -1.279631    0.037510   -0.035845
      2          1           0       -1.892363    0.730997    0.268129
      3          1           0       -1.697364   -0.847297   -0.014993
      4          8           0        1.433920   -0.097611    0.060341
      5          1           0        1.933016    0.677583   -0.240655
      6          1           0        0.457111    0.028757   -0.022991
 ---------------------------------------------------------------------
                    Distance matrix (angstroms):
                    1          2          3          4          5
     1  O    0.000000
     2  H    0.974046   0.000000
     3  H    0.978682   1.615300   0.000000
     4  O    2.718616   3.434229   3.220660   0.000000
     5  H    3.282186   3.859436   3.944090   0.969856   0.000000
     6  H    1.736812   2.469397   2.325790   0.988468   1.626853
                    6
     6  H    0.000000
 Stoichiometry    H4O2
 Framework group  C1[X(H4O2)]
 Deg. of freedom    12
 Full point group                 C1      NOp   1
 Largest Abelian subgroup         C1      NOp   1
 Largest concise Abelian subgroup C1      NOp   1
                         Standard orientation:                         
 ---------------------------------------------------------------------
 Center     Atomic      Atomic             Coordinates (Angstroms)
 Number     Number       Type             X           Y           Z
 ---------------------------------------------------------------------
      1          8           0       -1.281577    0.028159   -0.041625
      2          1           0       -1.895823    0.717050    0.269657
      3          1           0       -1.696327   -0.858176   -0.027094
      4          8           0        1.432643   -0.098728    0.046604
      5          1           0        1.928406    0.680601   -0.249178
      6          1           0        0.455212    0.025078   -0.033214
 ---------------------------------------------------------------------
 Rotational constants (GHZ):    246.9721886      7.2438038      7.0741689
 Standard basis: SDDAll (6D, 10F)
 There are    30 symmetry adapted cartesian basis functions of A   symmetry.
 There are    30 symmetry adapted basis functions of A   symmetry.
    30 basis functions,    54 primitive gaussians,    30 cartesian basis functions
     8 alpha electrons        8 beta electrons
       nuclear repulsion energy        26.0689410809 Hartrees.
 NAtoms=    6 NActive=    6 NUniq=    6 SFac= 1.00D+00 NAtFMM=   60 NAOKFM=F Big=F
 Integral buffers will be    131072 words long.
 Raffenetti 2 integral format.
 Two-electron integral symmetry is turned on.
 One-electron integrals computed using PRISM.
   1 Symmetry operations used in ECPInt.
 ECPInt:  NShTT=     171 NPrTT=     619 LenC2=     172 LenP2D=     564.
 LDataN:  DoStor=T MaxTD1= 4 Len=   56
 NBasis=    30 RedAO= T EigKep=  3.48D-02  NBF=    30
 NBsUse=    30 1.00D-06 EigRej= -1.00D+00 NBFU=    30
 Lowest energy guess from the checkpoint file:  "/tmp/Gau-28349.chk"
 B after Tr=     0.000000    0.000000    0.000000
         Rot=    0.999998   -0.001938    0.000026   -0.000908 Ang=  -0.25 deg.
 B after Tr=     0.000000    0.000000    0.000000
         Rot=    0.999990    0.003763   -0.000074    0.002225 Ang=   0.50 deg.
 Keep R1 ints in memory in canonical form, NReq=1237769.
 Requested convergence on RMS density matrix=1.00D-08 within 512 cycles.
 Requested convergence on MAX density matrix=1.00D-06.
 Requested convergence on             energy=1.00D-06.
 No special actions if energy rises.
 Integral accuracy reduced to 1.0D-05 until final iterations.
 Initial convergence to 1.0D-05 achieved.  Increase integral accuracy.
 SCF Done:  E(RPBE1PBE) =  -34.4131163129     A.U. after    9 cycles
            NFock=  9  Conv=0.46D-08     -V/T= 2.2668
   1 Symmetry operations used in ECPInt.
 ECPInt:  NShTT=     171 NPrTT=     619 LenC2=     172 LenP2D=     564.
 LDataN:  DoStor=T MaxTD1= 5 Len=  102
 Calling FoFJK, ICntrl=      2127 FMM=F ISym2X=0 I1Cent= 0 IOpClX= 0 NMat=1 NMatS=1 NMatT=0.
 ***** Axes restored to original set *****
 -------------------------------------------------------------------
 Center     Atomic                   Forces (Hartrees/Bohr)
 Number     Number              X              Y              Z
 -------------------------------------------------------------------
      1        8          -0.007449902   -0.004716497    0.001700620
      2        1           0.003351761   -0.003736331   -0.001488168
      3        1           0.004020668    0.008279812   -0.000548569
      4        8          -0.001936810    0.001884890   -0.000685470
      5        1          -0.001100924   -0.001801142    0.000082526
      6        1           0.003115208    0.000089267    0.000939061
 -------------------------------------------------------------------
 Cartesian Forces:  Max     0.008279812 RMS     0.003463306

 GradGradGradGradGradGradGradGradGradGradGradGradGradGradGradGradGradGrad
 Berny optimization.
 Search for a local minimum.
 Step number   3 out of a maximum of  100
 All quantities printed in internal units (Hartrees-Bohrs-Radians)
 Update second derivatives using D2CorN and points    1    3
 The second derivative matrix:
                          X1        Y1        Z1        X2        Y2
           X1           0.40860
           Y1          -0.01040   0.69947
           Z1          -0.14869   0.09956   0.06864
           X2          -0.24927   0.21823   0.11595   0.22435
           Y2           0.18329  -0.28439  -0.10397  -0.20999   0.29772
           Z2           0.11420  -0.11794  -0.05652  -0.10741   0.11532
           X3          -0.15988  -0.21066   0.03116   0.02639   0.02659
           Y3          -0.17227  -0.41001   0.00738  -0.01193  -0.01326
           Z3           0.03441   0.01993  -0.01110  -0.01044  -0.01143
           X4           0.00002   0.00371   0.00233  -0.00391  -0.00011
           Y4           0.00037   0.00014  -0.00005   0.00091   0.00013
           Z4           0.00059   0.00643   0.00384  -0.00519   0.00002
           X5          -0.00046   0.00087   0.00072  -0.00222  -0.00019
           Y5          -0.00046   0.00172   0.00125  -0.00313  -0.00022
           Z5          -0.00066  -0.00371  -0.00210   0.00209  -0.00013
           X6           0.00098  -0.00175  -0.00147   0.00465   0.00042
           Y6          -0.00053  -0.00693  -0.00417   0.00591   0.00002
           Z6           0.00015  -0.00428  -0.00275   0.00499   0.00019
                          Z2        X3        Y3        Z3        X4
           Z2           0.05391
           X3          -0.00669   0.13300
           Y3           0.00273   0.18566   0.42152
           Z3           0.00288  -0.02345  -0.01001   0.00732
           X4           0.00046   0.00201  -0.00026  -0.00179   0.65779
           Y4          -0.00031  -0.00066  -0.00089   0.00053   0.10554
           Z4           0.00031   0.00238  -0.00178  -0.00220  -0.02840
           X5           0.00051   0.00137   0.00103  -0.00115  -0.17499
           Y5           0.00062   0.00184   0.00098  -0.00157  -0.20847
           Z5           0.00010  -0.00075   0.00179   0.00076   0.06964
           X6          -0.00108  -0.00289  -0.00223   0.00243  -0.48092
           Y6          -0.00043  -0.00278   0.00166   0.00255   0.09959
           Z6          -0.00068  -0.00265  -0.00010   0.00233  -0.04225
                          Y4        Z4        X5        Y5        Z5
           Y4           0.45128
           Z4          -0.15779   0.06101
           X5          -0.16806   0.05970   0.18127
           Y5          -0.37845   0.13401   0.20525   0.35730
           Z5           0.13220  -0.04849  -0.07238  -0.12587   0.04379
           X6           0.06190  -0.02909  -0.00498   0.00496   0.00206
           Y6          -0.07220   0.01911  -0.03889   0.01867  -0.00427
           Z6           0.02542  -0.01446   0.01262  -0.00843   0.00594
                          X6        Y6        Z6
           X6           0.48315
           Y6          -0.06329   0.05878
           Z6           0.02714  -0.01279   0.00962
 ITU=  0 -1  0
     Eigenvalues ---   -0.00344   0.00000   0.00000   0.00000   0.00000
     Eigenvalues ---    0.02739   0.15243   0.15636   0.79116   0.84322
     Eigenvalues ---    1.06666   1.12772
 RFO step:  Lambda=-3.71427217D-03 EMin=-3.43546250D-03
 I=     1 Eig=   -3.44D-03 Dot1=  3.68D-04
 I=     1 Stepn=  3.75D-01 RXN=   3.75D-01 EDone=F
 Mixed    1 eigenvectors in step.  Raw Step.Grad=  3.68D-04.
 RFO eigenvector is Hessian eigenvector with negative curvature.
 Taking step of  3.75D-01 in eigenvector direction(s).  Step.Grad=  2.68D-04.
 Quartic linear search produced a step of -0.02597.
 Maximum step size (   0.150) exceeded in Quadratic search.
    -- Step size scaled by   0.400
 TrRot= -0.000121  0.003151 -0.000362 -0.661683 -0.003008  0.661190
 Variable       Old X    -DE/DX   Delta X   Delta X   Delta X     New X
                                 (Linear)    (Quad)   (Total)
    X1       -2.41815  -0.00745   0.00012  -0.02191  -0.02166  -2.43981
    Y1        0.07088  -0.00472  -0.00058   0.01364   0.01725   0.08813
    Z1       -0.06774   0.00170  -0.00041  -0.01930  -0.02602  -0.09376
    X2       -3.57605   0.00335   0.00096  -0.03455  -0.03431  -3.61036
    Y2        1.38138  -0.00374   0.00006  -0.02005  -0.01407   1.36732
    Z2        0.50669  -0.00149  -0.00018   0.03358   0.02195   0.52864
    X3       -3.20755   0.00402  -0.00055   0.01090   0.00959  -3.19796
    Y3       -1.60116   0.00828  -0.00025  -0.00233   0.00202  -1.59913
    Z3       -0.02833  -0.00055   0.00048  -0.03567  -0.04019  -0.06852
    X4        2.70972  -0.00194  -0.00036   0.02169   0.02081   2.73053
    Y4       -0.18446   0.00188  -0.00019   0.00012   0.00197  -0.18248
    Z4        0.11403  -0.00069  -0.00089   0.01332   0.01889   0.13292
    X5        3.65287  -0.00110   0.00013   0.00467   0.00656   3.65943
    Y5        1.28045  -0.00180   0.00005  -0.02191  -0.02149   1.25895
    Z5       -0.45477   0.00008   0.00066  -0.07982  -0.07316  -0.52793
    X6        0.86381   0.00312  -0.00029   0.01951   0.01901   0.88282
    Y6        0.05434   0.00009   0.00091   0.01059   0.01432   0.06866
    Z6       -0.04345   0.00094   0.00034   0.09657   0.09853   0.05508
         Item               Value     Threshold  Converged?
 Maximum Force            0.008280     0.000450     NO 
 RMS     Force            0.003463     0.000300     NO 
 Maximum Displacement     0.098527     0.001800     NO 
 RMS     Displacement     0.034910     0.001200     NO 
 Predicted change in Energy=-1.850703D-04
 GradGradGradGradGradGradGradGradGradGradGradGradGradGradGradGradGradGrad

                          Input orientation:                          
 ---------------------------------------------------------------------
 Center     Atomic      Atomic             Coordinates (Angstroms)
 Number     Number       Type             X           Y           Z
 ---------------------------------------------------------------------
      1          8           0       -1.291093    0.046637   -0.049615
      2          1           0       -1.910519    0.723554    0.279747
      3          1           0       -1.692288   -0.846226   -0.036261
      4          8           0        1.444933   -0.096566    0.070337
      5          1           0        1.936487    0.666209   -0.279370
      6          1           0        0.467169    0.036332    0.029148
 ---------------------------------------------------------------------
                    Distance matrix (angstroms):
                    1          2          3          4          5
     1  O    0.000000
     2  H    0.974877   0.000000
     3  H    0.978948   1.616073   0.000000
     4  O    2.742396   3.460565   3.227307   0.000000
     5  H    3.294529   3.887847   3.938853   0.972494   0.000000
     6  H    1.760055   2.487664   2.333761   0.987614   1.628135
                    6
     6  H    0.000000
 Stoichiometry    H4O2
 Framework group  C1[X(H4O2)]
 Deg. of freedom    12
 Full point group                 C1      NOp   1
 Largest Abelian subgroup         C1      NOp   1
 Largest concise Abelian subgroup C1      NOp   1
                         Standard orientation:                         
 ---------------------------------------------------------------------
 Center     Atomic      Atomic             Coordinates (Angstroms)
 Number     Number       Type             X           Y           Z
 ---------------------------------------------------------------------
      1          8           0       -1.293303    0.030280   -0.046678
      2          1           0       -1.914264    0.698049    0.298107
      3          1           0       -1.688801   -0.865216   -0.044035
      4          8           0        1.444441   -0.097360    0.049237
      5          1           0        1.928393    0.673863   -0.292452
      6          1           0        0.465566    0.029939    0.017910
 ---------------------------------------------------------------------
 Rotational constants (GHZ):    244.1597044      7.1281171      6.9709572
 Standard basis: SDDAll (6D, 10F)
 There are    30 symmetry adapted cartesian basis functions of A   symmetry.
 There are    30 symmetry adapted basis functions of A   symmetry.
    30 basis functions,    54 primitive gaussians,    30 cartesian basis functions
     8 alpha electrons        8 beta electrons
       nuclear repulsion energy        25.9579971887 Hartrees.
 NAtoms=    6 NActive=    6 NUniq=    6 SFac= 1.00D+00 NAtFMM=   60 NAOKFM=F Big=F
 Integral buffers will be    131072 words long.
 Raffenetti 2 integral format.
 Two-electron integral symmetry is turned on.
 One-electron integrals computed using PRISM.
   1 Symmetry operations used in ECPInt.
 ECPInt:  NShTT=     171 NPrTT=     619 LenC2=     172 LenP2D=     564.
 LDataN:  DoStor=T MaxTD1= 4 Len=   56
 NBasis=    30 RedAO= T EigKep=  3.58D-02  NBF=    30
 NBsUse=    30 1.00D-06 EigRej= -1.00D+00 NBFU=    30
 Initial guess from the checkpoint file:  "/tmp/Gau-28349.chk"
 B after Tr=     0.000000    0.000000    0.000000
         Rot=    0.999998   -0.001814   -0.000076   -0.000744 Ang=  -0.22 deg.
 ExpMin= 7.02D-02 ExpMax= 4.71D+01 ExpMxC= 4.71D+01 IAcc=2 IRadAn=         4 AccDes= 0.00D+00
 Harris functional with IExCor= 1009 and IRadAn=       4 diagonalized for initial guess.
 HarFok:  IExCor= 1009 AccDes= 0.00D+00 IRadAn=         4 IDoV= 1 UseB2=F ITyADJ=14
 ICtDFT=  3500011 ScaDFX=  1.000000  1.000000  1.000000  1.000000
 FoFCou: FMM=F IPFlag=           0 FMFlag=      100000 FMFlg1=           0
         NFxFlg=           0 DoJE=T BraDBF=F KetDBF=T FulRan=T
         wScrn=  0.000000 ICntrl=     500 IOpCl=  0 I1Cent=   200000004 NGrid=           0
         NMat0=    1 NMatS0=      1 NMatT0=    0 NMatD0=    1 NMtDS0=    0 NMtDT0=    0
 Petite list used in FoFCou.
 Keep R1 ints in memory in canonical form, NReq=1237769.
 Requested convergence on RMS density matrix=1.00D-08 within 512 cycles.
 Requested convergence on MAX density matrix=1.00D-06.
 Requested convergence on             energy=1.00D-06.
 No special actions if energy rises.
 Integral accuracy reduced to 1.0D-05 until final iterations.
 Initial convergence to 1.0D-05 achieved.  Increase integral accuracy.
 SCF Done:  E(RPBE1PBE) =  -34.4131352045     A.U. after   11 cycles
            NFock= 11  Conv=0.58D-08     -V/T= 2.2674
   1 Symmetry operations used in ECPInt.
 ECPInt:  NShTT=     171 NPrTT=     619 LenC2=     172 LenP2D=     564.
 LDataN:  DoStor=T MaxTD1= 5 Len=  102
 Calling FoFJK, ICntrl=      2127 FMM=F ISym2X=0 I1Cent= 0 IOpClX= 0 NMat=1 NMatS=1 NMatT=0.
 ***** Axes restored to original set *****
 -------------------------------------------------------------------
 Center     Atomic                   Forces (Hartrees/Bohr)
 Number     Number              X              Y              Z
 -------------------------------------------------------------------
      1        8          -0.006590627   -0.004486905    0.003043085
      2        1           0.003620475   -0.004168719   -0.001969470
      3        1           0.003712963    0.008497819   -0.000712837
      4        8          -0.000725027    0.003543146   -0.000421646
      5        1          -0.002730846   -0.003658261    0.001040606
      6        1           0.002713063    0.000272920   -0.000979739
 -------------------------------------------------------------------
 Cartesian Forces:  Max     0.008497819 RMS     0.003630708

 GradGradGradGradGradGradGradGradGradGradGradGradGradGradGradGradGradGrad
 Berny optimization.
 Search for a local minimum.
 Step number   4 out of a maximum of  100
 All quantities printed in internal units (Hartrees-Bohrs-Radians)
 Update second derivatives using D2CorN and points    2    1    3    4
 The second derivative matrix:
                          X1        Y1        Z1        X2        Y2
           X1           0.41012
           Y1          -0.00981   0.70045
           Z1          -0.14568   0.09990   0.07123
           X2          -0.24968   0.21698   0.11660   0.22604
           Y2           0.18360  -0.28372  -0.10320  -0.21093   0.29746
           Z2           0.11328  -0.11765  -0.05760  -0.10817   0.11541
           X3          -0.15938  -0.21024   0.03027   0.02602   0.02691
           Y3          -0.17177  -0.41071   0.00638  -0.01059  -0.01304
           Z3           0.03509   0.01982  -0.00998  -0.01004  -0.01216
           X4           0.00085   0.00442   0.00434  -0.00474   0.00101
           Y4           0.00172  -0.00175  -0.00026   0.00438   0.00093
           Z4           0.00199   0.00835   0.00531  -0.00759   0.00110
           X5          -0.00217   0.00189  -0.00055  -0.00444  -0.00098
           Y5          -0.00076   0.00392   0.00187  -0.00666  -0.00114
           Z5           0.00188  -0.00469   0.00067   0.00451  -0.00075
           X6           0.00025  -0.00324  -0.00498   0.00680   0.00039
           Y6          -0.00298  -0.00819  -0.00468   0.00682  -0.00049
           Z6          -0.00655  -0.00571  -0.00964   0.00469  -0.00041
                          Z2        X3        Y3        Z3        X4
           Z2           0.05451
           X3          -0.00621   0.13252
           Y3           0.00266   0.18452   0.42059
           Z3           0.00244  -0.02387  -0.00951   0.00689
           X4          -0.00008   0.00302  -0.00022  -0.00054   0.65722
           Y4          -0.00143  -0.00252  -0.00196   0.00305   0.10429
           Z4           0.00058   0.00328  -0.00273  -0.00245  -0.02674
           X5           0.00173   0.00244   0.00162  -0.00331  -0.17449
           Y5           0.00171   0.00313   0.00151  -0.00455  -0.20557
           Z5          -0.00155  -0.00238   0.00207   0.00165   0.07149
           X6          -0.00054  -0.00463  -0.00356   0.00267  -0.48186
           Y6          -0.00069  -0.00180   0.00362   0.00335   0.09607
           Z6           0.00161  -0.00109   0.00112   0.00144  -0.04847
                          Y4        Z4        X5        Y5        Z5
           Y4           0.45017
           Z4          -0.16029   0.06476
           X5          -0.16771   0.06072   0.18170
           Y5          -0.37713   0.13724   0.20421   0.35519
           Z5           0.13607  -0.04966  -0.07630  -0.13008   0.04818
           X6           0.05984  -0.03166  -0.00305   0.00565   0.00080
           Y6          -0.07026   0.01632  -0.03903   0.01765  -0.00262
           Z6           0.02285  -0.01853   0.01772  -0.00618   0.00070
                          X6        Y6        Z6
           X6           0.48248
           Y6          -0.05909   0.05767
           Z6           0.03371  -0.01167   0.02442
 ITU=  0  0 -1  0
     Eigenvalues ---   -0.00384  -0.00001   0.00000   0.00000   0.01240
     Eigenvalues ---    0.03656   0.15275   0.15628   0.78939   0.84277
     Eigenvalues ---    1.06394   1.12690
 RFO step:  Lambda=-4.07196569D-03 EMin=-3.84438026D-03
 I=     1 Eig=   -3.84D-03 Dot1= -3.48D-04
 I=     1 Stepn= -3.75D-01 RXN=   3.75D-01 EDone=F
 Mixed    1 eigenvectors in step.  Raw Step.Grad=  3.48D-04.
 RFO eigenvector is Hessian eigenvector with negative curvature.
 Taking step of  3.75D-01 in eigenvector direction(s).  Step.Grad=  2.25D-03.
 Quartic linear search produced a step of -0.42346.
 Maximum step size (   0.150) exceeded in Quadratic search.
    -- Step size scaled by   0.400
 TrRot=  0.001495  0.000936  0.016525 -1.398949 -0.004927  1.400717
 Variable       Old X    -DE/DX   Delta X   Delta X   Delta X     New X
                                 (Linear)    (Quad)   (Total)
    X1       -2.43981  -0.00659   0.00917   0.02562   0.03621  -2.40360
    Y1        0.08813  -0.00449  -0.00730  -0.01154  -0.02239   0.06574
    Z1       -0.09376   0.00304   0.01102   0.03603   0.06123  -0.03253
    X2       -3.61036   0.00362   0.01453   0.00604   0.01923  -3.59113
    Y2        1.36732  -0.00417   0.00596  -0.01047  -0.00745   1.35987
    Z2        0.52864  -0.00197  -0.00930  -0.00460  -0.00699   0.52166
    X3       -3.19796   0.00371  -0.00406  -0.01462  -0.01425  -3.21221
    Y3       -1.59913   0.00850  -0.00086   0.00313  -0.00313  -1.60227
    Z3       -0.06852  -0.00071   0.01702  -0.08583  -0.04721  -0.11573
    X4        2.73053  -0.00073  -0.00881  -0.02061  -0.02776   2.70277
    Y4       -0.18248   0.00354  -0.00084   0.01276   0.01839  -0.16409
    Z4        0.13292  -0.00042  -0.00800   0.02788   0.03949   0.17240
    X5        3.65943  -0.00273  -0.00278   0.00994   0.00697   3.66640
    Y5        1.25895  -0.00366   0.00910  -0.04611  -0.03239   1.22656
    Z5       -0.52793   0.00104   0.03098  -0.07860  -0.03396  -0.56190
    X6        0.88282   0.00271  -0.00805  -0.01363  -0.02041   0.86241
    Y6        0.06866   0.00027  -0.00606   0.05046   0.04698   0.11564
    Z6        0.05508  -0.00098  -0.04172   0.01247  -0.01256   0.04252
         Item               Value     Threshold  Converged?
 Maximum Force            0.008498     0.000450     NO 
 RMS     Force            0.003631     0.000300     NO 
 Maximum Displacement     0.061232     0.001800     NO 
 RMS     Displacement     0.029980     0.001200     NO 
 Predicted change in Energy=-2.216670D-04
 GradGradGradGradGradGradGradGradGradGradGradGradGradGradGradGradGradGrad

                          Input orientation:                          
 ---------------------------------------------------------------------
 Center     Atomic      Atomic             Coordinates (Angstroms)
 Number     Number       Type             X           Y           Z
 ---------------------------------------------------------------------
      1          8           0       -1.271932    0.034787   -0.017213
      2          1           0       -1.900344    0.719610    0.276049
      3          1           0       -1.699826   -0.847883   -0.061242
      4          8           0        1.430245   -0.086834    0.091232
      5          1           0        1.940177    0.649067   -0.297342
      6          1           0        0.456368    0.061193    0.022502
 ---------------------------------------------------------------------
                    Distance matrix (angstroms):
                    1          2          3          4          5
     1  O    0.000000
     2  H    0.974622   0.000000
     3  H    0.981906   1.615861   0.000000
     4  O    2.707085   3.431812   3.224870   0.000000
     5  H    3.282294   3.883730   3.942870   0.975998   0.000000
     6  H    1.728958   2.460059   2.341497   0.987457   1.627754
                    6
     6  H    0.000000
 Stoichiometry    H4O2
 Framework group  C1[X(H4O2)]
 Deg. of freedom    12
 Full point group                 C1      NOp   1
 Largest Abelian subgroup         C1      NOp   1
 Largest concise Abelian subgroup C1      NOp   1
                         Standard orientation:                         
 ---------------------------------------------------------------------
 Center     Atomic      Atomic             Coordinates (Angstroms)
 Number     Number       Type             X           Y           Z
 ---------------------------------------------------------------------
      1          8           0       -1.275300    0.027267   -0.036151
      2          1           0       -1.901764    0.709578    0.266969
      3          1           0       -1.703741   -0.854845   -0.085700
      4          8           0        1.427420   -0.096104    0.055449
      5          1           0        1.935331    0.643150   -0.329391
      6          1           0        0.453211    0.052819   -0.006262
 ---------------------------------------------------------------------
 Rotational constants (GHZ):    248.7216978      7.2820796      7.1234731
 Standard basis: SDDAll (6D, 10F)
 There are    30 symmetry adapted cartesian basis functions of A   symmetry.
 There are    30 symmetry adapted basis functions of A   symmetry.
    30 basis functions,    54 primitive gaussians,    30 cartesian basis functions
     8 alpha electrons        8 beta electrons
       nuclear repulsion energy        26.0747150396 Hartrees.
 NAtoms=    6 NActive=    6 NUniq=    6 SFac= 1.00D+00 NAtFMM=   60 NAOKFM=F Big=F
 Integral buffers will be    131072 words long.
 Raffenetti 2 integral format.
 Two-electron integral symmetry is turned on.
 One-electron integrals computed using PRISM.
   1 Symmetry operations used in ECPInt.
 ECPInt:  NShTT=     171 NPrTT=     619 LenC2=     172 LenP2D=     564.
 LDataN:  DoStor=T MaxTD1= 4 Len=   56
 NBasis=    30 RedAO= T EigKep=  3.46D-02  NBF=    30
 NBsUse=    30 1.00D-06 EigRej= -1.00D+00 NBFU=    30
 Initial guess from the checkpoint file:  "/tmp/Gau-28349.chk"
 B after Tr=     0.000000    0.000000    0.000000
         Rot=    0.999975    0.007013    0.000268    0.001027 Ang=   0.81 deg.
 ExpMin= 7.02D-02 ExpMax= 4.71D+01 ExpMxC= 4.71D+01 IAcc=2 IRadAn=         4 AccDes= 0.00D+00
 Harris functional with IExCor= 1009 and IRadAn=       4 diagonalized for initial guess.
 HarFok:  IExCor= 1009 AccDes= 0.00D+00 IRadAn=         4 IDoV= 1 UseB2=F ITyADJ=14
 ICtDFT=  3500011 ScaDFX=  1.000000  1.000000  1.000000  1.000000
 FoFCou: FMM=F IPFlag=           0 FMFlag=      100000 FMFlg1=           0
         NFxFlg=           0 DoJE=T BraDBF=F KetDBF=T FulRan=T
         wScrn=  0.000000 ICntrl=     500 IOpCl=  0 I1Cent=   200000004 NGrid=           0
         NMat0=    1 NMatS0=      1 NMatT0=    0 NMatD0=    1 NMtDS0=    0 NMtDT0=    0
 Petite list used in FoFCou.
 Keep R1 ints in memory in canonical form, NReq=1237769.
 Requested convergence on RMS density matrix=1.00D-08 within 512 cycles.
 Requested convergence on MAX density matrix=1.00D-06.
 Requested convergence on             energy=1.00D-06.
 No special actions if energy rises.
 Integral accuracy reduced to 1.0D-05 until final iterations.
 Initial convergence to 1.0D-05 achieved.  Increase integral accuracy.
 SCF Done:  E(RPBE1PBE) =  -34.4131273472     A.U. after   11 cycles
            NFock= 11  Conv=0.44D-08     -V/T= 2.2677
   1 Symmetry operations used in ECPInt.
 ECPInt:  NShTT=     171 NPrTT=     619 LenC2=     172 LenP2D=     564.
 LDataN:  DoStor=T MaxTD1= 5 Len=  102
 Calling FoFJK, ICntrl=      2127 FMM=F ISym2X=0 I1Cent= 0 IOpClX= 0 NMat=1 NMatS=1 NMatT=0.
 ***** Axes restored to original set *****
 -------------------------------------------------------------------
 Center     Atomic                   Forces (Hartrees/Bohr)
 Number     Number              X              Y              Z
 -------------------------------------------------------------------
      1        8          -0.010022556   -0.006301395    0.000940782
      2        1           0.003743840   -0.003802339   -0.001413969
      3        1           0.005987050    0.010569074    0.000218080
      4        8           0.002268879    0.006887036   -0.002974568
      5        1          -0.003722600   -0.006060292    0.002588919
      6        1           0.001745387   -0.001292083    0.000640757
 -------------------------------------------------------------------
 Cartesian Forces:  Max     0.010569074 RMS     0.004960714

 GradGradGradGradGradGradGradGradGradGradGradGradGradGradGradGradGradGrad
 Berny optimization.
 Search for a local minimum.
 Step number   5 out of a maximum of  100
 All quantities printed in internal units (Hartrees-Bohrs-Radians)
 Update second derivatives using D2CorN and points    2    1    3    5    4

 The second derivative matrix:
                          X1        Y1        Z1        X2        Y2
           X1           0.41730
           Y1          -0.01005   0.69891
           Z1          -0.13700   0.10118   0.07796
           X2          -0.24872   0.21772   0.11754   0.22577
           Y2           0.18258  -0.28354  -0.10396  -0.21147   0.29749
           Z2           0.11211  -0.11763  -0.05876  -0.10847   0.11564
           X3          -0.16269  -0.20948   0.02490   0.02528   0.02770
           Y3          -0.17384  -0.41007   0.00213  -0.01076  -0.01251
           Z3           0.02908   0.01881  -0.01472  -0.01055  -0.01176
           X4          -0.00548   0.00627  -0.00322  -0.00725   0.00247
           Y4          -0.00064   0.00098  -0.00748   0.00332   0.00192
           Z4           0.00959   0.00864   0.01288  -0.00684   0.00054
           X5          -0.00006   0.00135   0.00302  -0.00425  -0.00164
           Y5          -0.00065   0.00136   0.00602  -0.00596  -0.00181
           Z5          -0.00380  -0.00469  -0.00539   0.00384  -0.00027
           X6          -0.00036  -0.00582  -0.00524   0.00918   0.00037
           Y6           0.00259  -0.00764   0.00212   0.00715  -0.00157
           Z6          -0.00998  -0.00631  -0.01197   0.00447  -0.00019
                          Z2        X3        Y3        Z3        X4
           Z2           0.05474
           X3          -0.00550   0.13376
           Y3           0.00304   0.18480   0.42040
           Z3           0.00322  -0.02018  -0.00644   0.01020
           X4           0.00087   0.00685   0.00167   0.00611   0.66359
           Y4          -0.00108  -0.00286  -0.00315   0.00915   0.10531
           Z4          -0.00033  -0.00056  -0.00589  -0.00802  -0.03261
           X5           0.00157   0.00171   0.00138  -0.00667  -0.17667
           Y5           0.00180   0.00445   0.00323  -0.00868  -0.20355
           Z5          -0.00088   0.00052   0.00440   0.00629   0.07775
           X6          -0.00058  -0.00492  -0.00325   0.00221  -0.48104
           Y6          -0.00177  -0.00462   0.00209  -0.00108   0.08783
           Z6           0.00200   0.00082   0.00276   0.00303  -0.04889
                          Y4        Z4        X5        Y5        Z5
           Y4           0.44500
           Z4          -0.16490   0.07268
           X5          -0.16736   0.06385   0.18245
           Y5          -0.37098   0.13936   0.20285   0.34863
           Z5           0.14017  -0.05591  -0.07956  -0.13233   0.05363
           X6           0.06223  -0.03343  -0.00319   0.00285   0.00124
           Y6          -0.07377   0.02225  -0.03658   0.01957  -0.00728
           Z6           0.02414  -0.02130   0.01779  -0.00617   0.00227
                          X6        Y6        Z6
           X6           0.48033
           Y6          -0.05637   0.06132
           Z6           0.03581  -0.01424   0.02597
 ITU=  0  0  0 -1  0
 Energy rises -- skip Quadratic search.
 Quartic linear search produced a step of -0.50419.
 TrRot=  0.000000  0.000000  0.000000  0.000000  0.000000  0.000000
 Variable       Old X    -DE/DX   Delta X   Delta X   Delta X     New X
                                 (Linear)    (Quad)   (Total)
    X1       -2.40360  -0.01002  -0.01826   0.00000  -0.01826  -2.42186
    Y1        0.06574  -0.00630   0.01129   0.00000   0.01129   0.07703
    Z1       -0.03253   0.00094  -0.03087   0.00000  -0.03087  -0.06340
    X2       -3.59113   0.00374  -0.00969   0.00000  -0.00969  -3.60082
    Y2        1.35987  -0.00380   0.00376   0.00000   0.00376   1.36362
    Z2        0.52166  -0.00141   0.00352   0.00000   0.00352   0.52518
    X3       -3.21221   0.00599   0.00718   0.00000   0.00718  -3.20502
    Y3       -1.60227   0.01057   0.00158   0.00000   0.00158  -1.60069
    Z3       -0.11573   0.00022   0.02380   0.00000   0.02380  -0.09193
    X4        2.70277   0.00227   0.01400   0.00000   0.01400   2.71677
    Y4       -0.16409   0.00689  -0.00927   0.00000  -0.00927  -0.17337
    Z4        0.17240  -0.00297  -0.01991   0.00000  -0.01991   0.15250
    X5        3.66640  -0.00372  -0.00352   0.00000  -0.00352   3.66289
    Y5        1.22656  -0.00606   0.01633   0.00000   0.01633   1.24289
    Z5       -0.56190   0.00259   0.01712   0.00000   0.01712  -0.54477
    X6        0.86241   0.00175   0.01029   0.00000   0.01029   0.87270
    Y6        0.11564  -0.00129  -0.02369   0.00000  -0.02369   0.09195
    Z6        0.04252   0.00064   0.00633   0.00000   0.00633   0.04885
         Item               Value     Threshold  Converged?
 Maximum Force            0.010569     0.000450     NO 
 RMS     Force            0.004961     0.000300     NO 
 Maximum Displacement     0.030873     0.001800     NO 
 RMS     Displacement     0.015116     0.001200     NO 
 Predicted change in Energy=-6.171639D-05
 GradGradGradGradGradGradGradGradGradGradGradGradGradGradGradGradGradGrad

                          Input orientation:                          
 ---------------------------------------------------------------------
 Center     Atomic      Atomic             Coordinates (Angstroms)
 Number     Number       Type             X           Y           Z
 ---------------------------------------------------------------------
      1          8           0       -1.281592    0.040762   -0.033550
      2          1           0       -1.905474    0.721599    0.277913
      3          1           0       -1.696025   -0.847047   -0.048647
      4          8           0        1.437651   -0.091741    0.080697
      5          1           0        1.938316    0.657710   -0.288281
      6          1           0        0.461814    0.048658    0.025853
 ---------------------------------------------------------------------
                    Distance matrix (angstroms):
                    1          2          3          4          5
     1  O    0.000000
     2  H    0.974565   0.000000
     3  H    0.979892   1.615908   0.000000
     4  O    2.724866   3.446288   3.226010   0.000000
     5  H    3.288362   3.885793   3.940832   0.973903   0.000000
     6  H    1.744436   2.473952   2.337543   0.987409   1.627785
                    6
     6  H    0.000000
 Stoichiometry    H4O2
 Framework group  C1[X(H4O2)]
 Deg. of freedom    12
 Full point group                 C1      NOp   1
 Largest Abelian subgroup         C1      NOp   1
 Largest concise Abelian subgroup C1      NOp   1
                         Standard orientation:                         
 ---------------------------------------------------------------------
 Center     Atomic      Atomic             Coordinates (Angstroms)
 Number     Number       Type             X           Y           Z
 ---------------------------------------------------------------------
      1          8           0       -1.284359    0.028787   -0.041478
      2          1           0       -1.908092    0.703817    0.282665
      3          1           0       -1.696234   -0.860037   -0.064663
      4          8           0        1.435996   -0.096762    0.052334
      5          1           0        1.931846    0.658711   -0.310820
      6          1           0        0.459387    0.041305    0.005970
 ---------------------------------------------------------------------
 Rotational constants (GHZ):    246.6242221      7.2041455      7.0461178
 Standard basis: SDDAll (6D, 10F)
 There are    30 symmetry adapted cartesian basis functions of A   symmetry.
 There are    30 symmetry adapted basis functions of A   symmetry.
    30 basis functions,    54 primitive gaussians,    30 cartesian basis functions
     8 alpha electrons        8 beta electrons
       nuclear repulsion energy        26.0196266348 Hartrees.
 NAtoms=    6 NActive=    6 NUniq=    6 SFac= 1.00D+00 NAtFMM=   60 NAOKFM=F Big=F
 Integral buffers will be    131072 words long.
 Raffenetti 2 integral format.
 Two-electron integral symmetry is turned on.
 One-electron integrals computed using PRISM.
   1 Symmetry operations used in ECPInt.
 ECPInt:  NShTT=     171 NPrTT=     619 LenC2=     172 LenP2D=     564.
 LDataN:  DoStor=T MaxTD1= 4 Len=   56
 NBasis=    30 RedAO= T EigKep=  3.52D-02  NBF=    30
 NBsUse=    30 1.00D-06 EigRej= -1.00D+00 NBFU=    30
 Lowest energy guess from the checkpoint file:  "/tmp/Gau-28349.chk"
 B after Tr=     0.000000    0.000000    0.000000
         Rot=    0.999994    0.003474    0.000136    0.000510 Ang=   0.40 deg.
 B after Tr=     0.000000    0.000000    0.000000
         Rot=    0.999994   -0.003535   -0.000132   -0.000516 Ang=  -0.41 deg.
 Keep R1 ints in memory in canonical form, NReq=1237769.
 Requested convergence on RMS density matrix=1.00D-08 within 512 cycles.
 Requested convergence on MAX density matrix=1.00D-06.
 Requested convergence on             energy=1.00D-06.
 No special actions if energy rises.
 Integral accuracy reduced to 1.0D-05 until final iterations.
 Initial convergence to 1.0D-05 achieved.  Increase integral accuracy.
 SCF Done:  E(RPBE1PBE) =  -34.4131906486     A.U. after    8 cycles
            NFock=  8  Conv=0.56D-08     -V/T= 2.2674
   1 Symmetry operations used in ECPInt.
 ECPInt:  NShTT=     171 NPrTT=     619 LenC2=     172 LenP2D=     564.
 LDataN:  DoStor=T MaxTD1= 5 Len=  102
 Calling FoFJK, ICntrl=      2127 FMM=F ISym2X=0 I1Cent= 0 IOpClX= 0 NMat=1 NMatS=1 NMatT=0.
 ***** Axes restored to original set *****
 -------------------------------------------------------------------
 Center     Atomic                   Forces (Hartrees/Bohr)
 Number     Number              X              Y              Z
 -------------------------------------------------------------------
      1        8          -0.007912028   -0.005104530    0.001997997
      2        1           0.003572220   -0.003932208   -0.001655359
      3        1           0.004612571    0.009184256   -0.000287234
      4        8           0.000685403    0.004987495   -0.001533546
      5        1          -0.003079255   -0.004656621    0.001667806
      6        1           0.002121089   -0.000478392   -0.000189664
 -------------------------------------------------------------------
 Cartesian Forces:  Max     0.009184256 RMS     0.004053315

 GradGradGradGradGradGradGradGradGradGradGradGradGradGradGradGradGradGrad
 Berny optimization.
 Search for a local minimum.
 Step number   6 out of a maximum of  100
 All quantities printed in internal units (Hartrees-Bohrs-Radians)
 Update second derivatives using D2CorN and points    2    1    3    4    6

 The second derivative matrix:
                          X1        Y1        Z1        X2        Y2
           X1           0.41780
           Y1          -0.00966   0.69853
           Z1          -0.13637   0.10181   0.07775
           X2          -0.24901   0.21785   0.11744   0.22574
           Y2           0.18236  -0.28348  -0.10408  -0.21164   0.29762
           Z2           0.11194  -0.11748  -0.05902  -0.10862   0.11572
           X3          -0.16301  -0.20942   0.02404   0.02530   0.02803
           Y3          -0.17393  -0.41020   0.00157  -0.01047  -0.01238
           Z3           0.02875   0.01794  -0.01431  -0.01018  -0.01158
           X4          -0.00684   0.00724  -0.00499  -0.00825   0.00324
           Y4          -0.00220   0.00218  -0.01083   0.00294   0.00270
           Z4           0.01059   0.00915   0.01359  -0.00718   0.00031
           X5           0.00036   0.00125   0.00384  -0.00430  -0.00196
           Y5           0.00059   0.00004   0.00881  -0.00549  -0.00230
           Z5          -0.00454  -0.00531  -0.00589   0.00422   0.00013
           X6           0.00069  -0.00727  -0.00396   0.01051  -0.00002
           Y6           0.00284  -0.00706   0.00272   0.00681  -0.00215
           Z6          -0.01036  -0.00612  -0.01212   0.00432  -0.00049
                          Z2        X3        Y3        Z3        X4
           Z2           0.05477
           X3          -0.00538   0.13393
           Y3           0.00305   0.18465   0.42022
           Z3           0.00350  -0.01944  -0.00603   0.00958
           X4           0.00100   0.00812   0.00203   0.00858   0.66590
           Y4          -0.00127  -0.00251  -0.00320   0.01329   0.10584
           Z4          -0.00044  -0.00129  -0.00645  -0.00878  -0.03413
           X5           0.00158   0.00149   0.00138  -0.00774  -0.17755
           Y5           0.00211   0.00440   0.00329  -0.01231  -0.20266
           Z5          -0.00068   0.00135   0.00482   0.00688   0.08050
           X6          -0.00051  -0.00583  -0.00367   0.00004  -0.48138
           Y6          -0.00214  -0.00514   0.00228  -0.00131   0.08429
           Z6           0.00188   0.00072   0.00303   0.00313  -0.05096
                          Y4        Z4        X5        Y5        Z5
           Y4           0.44252
           Z4          -0.16764   0.07444
           X5          -0.16763   0.06480   0.18278
           Y5          -0.36734   0.14133   0.20266   0.34420
           Z5           0.14394  -0.05760  -0.08085  -0.13522   0.05549
           X6           0.06356  -0.03279  -0.00278   0.00050  -0.00067
           Y6          -0.07685   0.02330  -0.03570   0.02212  -0.00836
           Z6           0.02251  -0.02121   0.01838  -0.00471   0.00181
                          X6        Y6        Z6
           X6           0.47878
           Y6          -0.05310   0.06166
           Z6           0.03790  -0.01422   0.02651
 ITU=  0  0  0  0 -1  0
     Eigenvalues ---   -0.00108  -0.00003   0.00000   0.00579   0.02344
     Eigenvalues ---    0.03762   0.15392   0.15631   0.79089   0.84199
     Eigenvalues ---    1.06788   1.12789
 RFO step:  Lambda=-1.27666118D-03 EMin=-1.08168247D-03
 Quartic linear search produced a step of  0.00123.
 Maximum step size (   0.150) exceeded in Quadratic search.
    -- Step size scaled by   0.377
 TrRot= -0.004440  0.004923  0.003478  2.286679  0.011105 -2.285573
 Variable       Old X    -DE/DX   Delta X   Delta X   Delta X     New X
                                 (Linear)    (Quad)   (Total)
    X1       -2.42186  -0.00791   0.00002   0.00922   0.00556  -2.41630
    Y1        0.07703  -0.00510  -0.00001   0.00465   0.00592   0.08295
    Z1       -0.06340   0.00200   0.00004  -0.04375  -0.05847  -0.12187
    X2       -3.60082   0.00357   0.00001   0.05159   0.04139  -3.55944
    Y2        1.36362  -0.00393   0.00000  -0.02057  -0.01464   1.34898
    Z2        0.52518  -0.00166   0.00000   0.08280   0.04914   0.57432
    X3       -3.20502   0.00461  -0.00001   0.03648   0.03453  -3.17050
    Y3       -1.60069   0.00918   0.00000   0.00254   0.00312  -1.59756
    Z3       -0.09193  -0.00029  -0.00003  -0.00319  -0.00939  -0.10132
    X4        2.71677   0.00069  -0.00002  -0.02843  -0.03421   2.68256
    Y4       -0.17337   0.00499   0.00001   0.01434   0.02397  -0.14940
    Z4        0.15250  -0.00153   0.00002   0.04273   0.06712   0.21962
    X5        3.66289  -0.00308   0.00000  -0.01661  -0.01803   3.64486
    Y5        1.24289  -0.00466  -0.00002  -0.03799  -0.03406   1.20883
    Z5       -0.54477   0.00167  -0.00002  -0.06061  -0.04068  -0.58545
    X6        0.87270   0.00212  -0.00001  -0.02442  -0.02924   0.84347
    Y6        0.09195  -0.00048   0.00003   0.00950   0.01569   0.10764
    Z6        0.04885  -0.00019  -0.00001  -0.01650  -0.00771   0.04114
         Item               Value     Threshold  Converged?
 Maximum Force            0.009184     0.000450     NO 
 RMS     Force            0.004053     0.000300     NO 
 Maximum Displacement     0.067122     0.001800     NO 
 RMS     Displacement     0.033055     0.001200     NO 
 Predicted change in Energy=-1.809241D-04
 GradGradGradGradGradGradGradGradGradGradGradGradGradGradGradGradGradGrad

                          Input orientation:                          
 ---------------------------------------------------------------------
 Center     Atomic      Atomic             Coordinates (Angstroms)
 Number     Number       Type             X           Y           Z
 ---------------------------------------------------------------------
      1          8           0       -1.278650    0.043895   -0.064492
      2          1           0       -1.883573    0.713851    0.303916
      3          1           0       -1.677754   -0.845395   -0.053616
      4          8           0        1.419548   -0.079057    0.116216
      5          1           0        1.928776    0.639687   -0.309809
      6          1           0        0.446343    0.056959    0.021771
 ---------------------------------------------------------------------
                    Distance matrix (angstroms):
                    1          2          3          4          5
     1  O    0.000000
     2  H    0.974935   0.000000
     3  H    0.974802   1.612897   0.000000
     4  O    2.707036   3.402138   3.195215   0.000000
     5  H    3.271502   3.862145   3.908729   0.978470   0.000000
     6  H    1.727198   2.437134   2.309051   0.987193   1.626999
                    6
     6  H    0.000000
 Stoichiometry    H4O2
 Framework group  C1[X(H4O2)]
 Deg. of freedom    12
 Full point group                 C1      NOp   1
 Largest Abelian subgroup         C1      NOp   1
 Largest concise Abelian subgroup C1      NOp   1
                         Standard orientation:                         
 ---------------------------------------------------------------------
 Center     Atomic      Atomic             Coordinates (Angstroms)
 Number     Number       Type             X           Y           Z
 ---------------------------------------------------------------------
      1          8           0       -1.277300    0.030607   -0.052870
      2          1           0       -1.873747    0.690299    0.346573
      3          1           0       -1.675720   -0.859052   -0.055588
      4          8           0        1.424412   -0.094350    0.061940
      5          1           0        1.923344    0.635587   -0.357181
      6          1           0        0.449226    0.043111   -0.006363
 ---------------------------------------------------------------------
 Rotational constants (GHZ):    241.5570498      7.3035626      7.1566208
 Standard basis: SDDAll (6D, 10F)
 There are    30 symmetry adapted cartesian basis functions of A   symmetry.
 There are    30 symmetry adapted basis functions of A   symmetry.
    30 basis functions,    54 primitive gaussians,    30 cartesian basis functions
     8 alpha electrons        8 beta electrons
       nuclear repulsion energy        26.1201566621 Hartrees.
 NAtoms=    6 NActive=    6 NUniq=    6 SFac= 1.00D+00 NAtFMM=   60 NAOKFM=F Big=F
 Integral buffers will be    131072 words long.
 Raffenetti 2 integral format.
 Two-electron integral symmetry is turned on.
 One-electron integrals computed using PRISM.
   1 Symmetry operations used in ECPInt.
 ECPInt:  NShTT=     171 NPrTT=     619 LenC2=     172 LenP2D=     564.
 LDataN:  DoStor=T MaxTD1= 4 Len=   56
 NBasis=    30 RedAO= T EigKep=  3.47D-02  NBF=    30
 NBsUse=    30 1.00D-06 EigRej= -1.00D+00 NBFU=    30
 Initial guess from the checkpoint file:  "/tmp/Gau-28349.chk"
 B after Tr=     0.000000    0.000000    0.000000
         Rot=    0.999998    0.001931   -0.000111    0.000262 Ang=   0.22 deg.
[...]
           Y6          -0.01742   0.04410
           Z6           0.05551  -0.02003   0.05123
 ITU=  0  0  0  0  0  0  0 -1  1  1  0  0  0  0  1  0 -1  1  0
     Eigenvalues ---    0.00066   0.00486   0.02025   0.02135   0.03422
     Eigenvalues ---    0.04890   0.14096   0.17005   0.69227   0.80197
     Eigenvalues ---    1.10370   1.11113
 RFO step:  Lambda=-1.77468807D-07 EMin= 6.59889937D-04
 Quartic linear search produced a step of  0.01060.
 TrRot=  0.000089  0.000296  0.000137  0.000148 -0.000084  0.000148
 MatCor failed.
 Variable       Old X    -DE/DX   Delta X   Delta X   Delta X     New X
                                 (Linear)    (Quad)   (Total)
    X1       -2.39747  -0.00006   0.00000   0.00019   0.00027  -2.39720
    Y1        0.04465  -0.00006  -0.00003  -0.00166  -0.00210   0.04255
    Z1       -0.11847   0.00003  -0.00002  -0.00034  -0.00041  -0.11889
    X2       -3.48427   0.00005   0.00006   0.00407   0.00380  -3.48047
    Y2        1.24261   0.00000  -0.00002   0.00034  -0.00041   1.24220
    Z2        0.73774  -0.00003   0.00005   0.00164   0.00153   0.73927
    X3       -3.23821   0.00001  -0.00008  -0.00442  -0.00391  -3.24211
    Y3       -1.55313   0.00004   0.00001   0.00119   0.00053  -1.55259
    Z3       -0.41787   0.00000  -0.00004  -0.00252  -0.00270  -0.42057
    X4        2.68834   0.00000   0.00000  -0.00003  -0.00004   2.68830
    Y4        0.21469   0.00000   0.00008   0.00248   0.00365   0.21834
    Z4        0.52017  -0.00005   0.00004   0.00079   0.00119   0.52136
    X5        3.60541   0.00000   0.00001  -0.00029  -0.00037   3.60504
    Y5        0.87125   0.00001  -0.00003  -0.00228  -0.00094   0.87031
    Z5       -0.91972   0.00002  -0.00001  -0.00158  -0.00115  -0.92087
    X6        0.85085   0.00001   0.00001   0.00023   0.00025   0.85110
    Y6        0.18136   0.00002  -0.00002  -0.00126  -0.00073   0.18063
    Z6        0.22459   0.00003  -0.00002   0.00135   0.00155   0.22613
         Item               Value     Threshold  Converged?
 Maximum Force            0.000060     0.000450     YES
 RMS     Force            0.000031     0.000300     YES
 Maximum Displacement     0.003910     0.001800     NO 
 RMS     Displacement     0.001894     0.001200     NO 
 Predicted change in Energy=-4.061195D-08
 GradGradGradGradGradGradGradGradGradGradGradGradGradGradGradGradGradGrad

                          Input orientation:                          
 ---------------------------------------------------------------------
 Center     Atomic      Atomic             Coordinates (Angstroms)
 Number     Number       Type             X           Y           Z
 ---------------------------------------------------------------------
      1          8           0       -1.268544    0.022516   -0.062914
      2          1           0       -1.841786    0.657346    0.391206
      3          1           0       -1.715653   -0.821596   -0.222559
      4          8           0        1.422584    0.115543    0.275893
      5          1           0        1.907705    0.460547   -0.487304
      6          1           0        0.450383    0.095584    0.119664
 ---------------------------------------------------------------------
                    Distance matrix (angstroms):
                    1          2          3          4          5
     1  O    0.000000
     2  H    0.968421   0.000000
     3  H    0.968462   1.606202   0.000000
     4  O    2.713967   3.311036   3.312887   0.000000
     5  H    3.234276   3.856059   3.852624   0.967905   0.000000
     6  H    1.730140   2.375574   2.376983   0.984876   1.620307
                    6
     6  H    0.000000
 Stoichiometry    H4O2
 Framework group  C1[X(H4O2)]
 Deg. of freedom    12
 Full point group                 C1      NOp   1
 Largest Abelian subgroup         C1      NOp   1
 Largest concise Abelian subgroup C1      NOp   1
                         Standard orientation:                         
 ---------------------------------------------------------------------
 Center     Atomic      Atomic             Coordinates (Angstroms)
 Number     Number       Type             X           Y           Z
 ---------------------------------------------------------------------
      1          8           0       -1.277468   -0.001204   -0.057325
      2          1           0       -1.781295    0.805435    0.125246
      3          1           0       -1.782506   -0.800540    0.152238
      4          8           0        1.431117    0.003415    0.113453
      5          1           0        1.883466   -0.023363   -0.741826
      6          1           0        0.451145    0.000774    0.015319
 ---------------------------------------------------------------------
 Rotational constants (GHZ):    241.0049085      7.2354417      7.1836231
 Standard basis: SDDAll (6D, 10F)
 There are    30 symmetry adapted cartesian basis functions of A   symmetry.
 There are    30 symmetry adapted basis functions of A   symmetry.
    30 basis functions,    54 primitive gaussians,    30 cartesian basis functions
     8 alpha electrons        8 beta electrons
       nuclear repulsion energy        26.1907983751 Hartrees.
 NAtoms=    6 NActive=    6 NUniq=    6 SFac= 1.00D+00 NAtFMM=   60 NAOKFM=F Big=F
 Integral buffers will be    131072 words long.
 Raffenetti 2 integral format.
 Two-electron integral symmetry is turned on.
 One-electron integrals computed using PRISM.
   1 Symmetry operations used in ECPInt.
 ECPInt:  NShTT=     171 NPrTT=     619 LenC2=     172 LenP2D=     566.
 LDataN:  DoStor=T MaxTD1= 4 Len=   56
 NBasis=    30 RedAO= T EigKep=  3.45D-02  NBF=    30
 NBsUse=    30 1.00D-06 EigRej= -1.00D+00 NBFU=    30
 Initial guess from the checkpoint file:  "/tmp/Gau-28349.chk"
 B after Tr=     0.000000    0.000000    0.000000
         Rot=    0.999991    0.004231   -0.000004    0.000113 Ang=   0.49 deg.
 Keep R1 ints in memory in canonical form, NReq=1237769.
 Requested convergence on RMS density matrix=1.00D-08 within 512 cycles.
 Requested convergence on MAX density matrix=1.00D-06.
 Requested convergence on             energy=1.00D-06.
 No special actions if energy rises.
 SCF Done:  E(RPBE1PBE) =  -34.4139093681     A.U. after    7 cycles
            NFock=  7  Conv=0.69D-08     -V/T= 2.2647
   1 Symmetry operations used in ECPInt.
 ECPInt:  NShTT=     171 NPrTT=     619 LenC2=     172 LenP2D=     566.
 LDataN:  DoStor=T MaxTD1= 5 Len=  102
 Calling FoFJK, ICntrl=      2127 FMM=F ISym2X=0 I1Cent= 0 IOpClX= 0 NMat=1 NMatS=1 NMatT=0.
 ***** Axes restored to original set *****
 -------------------------------------------------------------------
 Center     Atomic                   Forces (Hartrees/Bohr)
 Number     Number              X              Y              Z
 -------------------------------------------------------------------
      1        8          -0.000022889   -0.000059818    0.000029267
      2        1          -0.000000071    0.000007345   -0.000021588
      3        1           0.000014169    0.000050972    0.000005288
      4        8           0.000148036   -0.000000238    0.000009265
      5        1          -0.000067411   -0.000005267    0.000037101
      6        1          -0.000071834    0.000007007   -0.000059333
 -------------------------------------------------------------------
 Cartesian Forces:  Max     0.000148036 RMS     0.000049991

 GradGradGradGradGradGradGradGradGradGradGradGradGradGradGradGradGradGrad
 Berny optimization.
 Search for a local minimum.
 Step number  42 out of a maximum of  100
 All quantities printed in internal units (Hartrees-Bohrs-Radians)
 Update second derivatives using D2CorN and points   25   24   26   27   28
                                                         30   29   31   32   34

                                                         33   35   36   38   37

                                                         39   40   41   42
 DE= -8.09D-08 DEPred=-4.06D-08 R= 1.99D+00
 Trust test= 1.99D+00 RLast= 8.04D-03 DXMaxT set to 5.50D-02
 The second derivative matrix:
                          X1        Y1        Z1        X2        Y2
           X1           0.43402
           Y1           0.01666   0.68791
           Z1          -0.13020   0.19471   0.13701
           X2          -0.22354   0.20709   0.14049   0.20562
           Y2           0.15785  -0.28381  -0.13421  -0.18834   0.27833
           Z2           0.12227  -0.16359  -0.10272  -0.12380   0.15252
           X3          -0.15907  -0.22141  -0.02169   0.00922   0.04582
           Y3          -0.17928  -0.39403  -0.05717  -0.01683   0.00039
           Z3           0.00963  -0.01895  -0.02311  -0.01422  -0.02325
           X4          -0.02956  -0.01305   0.03357   0.01976   0.00953
           Y4           0.00842   0.02475  -0.00242  -0.01639   0.01065
           Z4           0.00739  -0.00767  -0.00182   0.00498  -0.00411
           X5          -0.00306   0.00018  -0.00682  -0.00311  -0.00877
           Y5          -0.01901  -0.00056  -0.00040   0.02014  -0.01873
           Z5          -0.00546  -0.01546   0.00599  -0.00703   0.01826
           X6          -0.01879   0.01053  -0.01536  -0.00794  -0.01609
           Y6           0.01536  -0.03426  -0.00050  -0.00567   0.01317
           Z6          -0.00363   0.01095  -0.01536  -0.00043  -0.00921
                          Z2        X3        Y3        Z3        X4
           Z2           0.10036
           X3           0.00921   0.14270
           Y3           0.00687   0.18159   0.39522
           Z3          -0.00638   0.01131   0.04664   0.03591
           X4          -0.02621  -0.01434   0.01019   0.02489   0.63641
           Y4          -0.02125   0.00423  -0.02663   0.03722   0.08926
           Z4           0.03480   0.00104   0.01130  -0.03919  -0.13348
           X5           0.02121   0.00708   0.00604  -0.03401  -0.15228
           Y5           0.02343  -0.00054   0.01666  -0.04520  -0.14618
           Z5          -0.02915  -0.00063  -0.00154   0.03779   0.18503
           X6          -0.00269   0.01442  -0.00171   0.00240  -0.45998
           Y6           0.00201  -0.00969   0.00840   0.00354   0.05024
           Z6           0.00309   0.00076  -0.00610  -0.00502  -0.08380
                          Y4        Z4        X5        Y5        Z5
           Y4           0.13333
           Z4          -0.18788   0.33961
           X5          -0.08548   0.14983   0.15951
           Y5          -0.13181   0.18298   0.12037   0.15546
           Z5           0.15888  -0.29036  -0.16309  -0.17008   0.26597
           X6          -0.00005  -0.02975  -0.00814   0.02522  -0.00882
           Y6          -0.01028   0.00537  -0.03234  -0.02103   0.00994
           Z6           0.01545  -0.04304   0.03287   0.00926   0.00975
                          X6        Y6        Z6
           X6           0.48042
           Y6          -0.01790   0.04401
           Z6           0.05422  -0.02036   0.05057
 ITU=  0  0  0  0  0  0  0  0 -1  1  1  0  0  0  0  1  0 -1  1
     Eigenvalues ---    0.00147   0.00471   0.02028   0.02124   0.03341
     Eigenvalues ---    0.04864   0.14099   0.17019   0.69275   0.80151
     Eigenvalues ---    1.10392   1.11177
 RFO step:  Lambda=-1.28090316D-07 EMin= 1.47226997D-03
 Quartic linear search produced a step of -0.19744.
 TrRot=  0.000161  0.000068  0.000191  0.000052 -0.000005  0.000052
 Variable       Old X    -DE/DX   Delta X   Delta X   Delta X     New X
                                 (Linear)    (Quad)   (Total)
    X1       -2.39720  -0.00002  -0.00005   0.00017   0.00027  -2.39693
    Y1        0.04255  -0.00006   0.00041  -0.00067  -0.00044   0.04211
    Z1       -0.11889   0.00003   0.00008   0.00038   0.00064  -0.11825
    X2       -3.48047   0.00000  -0.00075   0.00098   0.00026  -3.48021
    Y2        1.24220   0.00001   0.00008   0.00055   0.00033   1.24254
    Z2        0.73927  -0.00002  -0.00030  -0.00035  -0.00047   0.73880
    X3       -3.24211   0.00001   0.00077  -0.00190  -0.00080  -3.24292
    Y3       -1.55259   0.00005  -0.00011   0.00073   0.00035  -1.55224
    Z3       -0.42057   0.00001   0.00053  -0.00105  -0.00034  -0.42092
    X4        2.68830   0.00015   0.00001   0.00043   0.00057   2.68887
    Y4        0.21834   0.00000  -0.00072   0.00081   0.00044   0.21878
    Z4        0.52136   0.00001  -0.00023   0.00040   0.00037   0.52174
    X5        3.60504  -0.00007   0.00007  -0.00089  -0.00075   3.60429
    Y5        0.87031  -0.00001   0.00019   0.00002   0.00065   0.87096
    Z5       -0.92087   0.00004   0.00023  -0.00060  -0.00017  -0.92104
    X6        0.85110  -0.00007  -0.00005   0.00036   0.00045   0.85155
    Y6        0.18063   0.00001   0.00014  -0.00163  -0.00133   0.17929
    Z6        0.22613  -0.00006  -0.00031   0.00008  -0.00003   0.22610
         Item               Value     Threshold  Converged?
 Maximum Force            0.000148     0.000450     YES
 RMS     Force            0.000050     0.000300     YES
 Maximum Displacement     0.001333     0.001800     YES
 RMS     Displacement     0.000558     0.001200     YES
 Predicted change in Energy=-7.993662D-08
 Optimization completed.
    -- Stationary point found.
 GradGradGradGradGradGradGradGradGradGradGradGradGradGradGradGradGradGrad

                          Input orientation:                          
 ---------------------------------------------------------------------
 Center     Atomic      Atomic             Coordinates (Angstroms)
 Number     Number       Type             X           Y           Z
 ---------------------------------------------------------------------
      1          8           0       -1.268544    0.022516   -0.062914
      2          1           0       -1.841786    0.657346    0.391206
      3          1           0       -1.715653   -0.821596   -0.222559
      4          8           0        1.422584    0.115543    0.275893
      5          1           0        1.907705    0.460547   -0.487304
      6          1           0        0.450383    0.095584    0.119664
 ---------------------------------------------------------------------
                    Distance matrix (angstroms):
                    1          2          3          4          5
     1  O    0.000000
     2  H    0.968421   0.000000
     3  H    0.968462   1.606202   0.000000
     4  O    2.713967   3.311036   3.312887   0.000000
     5  H    3.234276   3.856059   3.852624   0.967905   0.000000
     6  H    1.730140   2.375574   2.376983   0.984876   1.620307
                    6
     6  H    0.000000
 Stoichiometry    H4O2
 Framework group  C1[X(H4O2)]
 Deg. of freedom    12
 Full point group                 C1      NOp   1
 Largest Abelian subgroup         C1      NOp   1
 Largest concise Abelian subgroup C1      NOp   1
                         Standard orientation:                         
 ---------------------------------------------------------------------
 Center     Atomic      Atomic             Coordinates (Angstroms)
 Number     Number       Type             X           Y           Z
 ---------------------------------------------------------------------
      1          8           0       -1.277468   -0.001204   -0.057325
      2          1           0       -1.781295    0.805435    0.125246
      3          1           0       -1.782506   -0.800540    0.152238
      4          8           0        1.431117    0.003415    0.113453
      5          1           0        1.883466   -0.023363   -0.741826
      6          1           0        0.451145    0.000774    0.015319
 ---------------------------------------------------------------------
 Rotational constants (GHZ):    241.0049085      7.2354417      7.1836231

 **********************************************************************

            Population analysis using the SCF density.

 **********************************************************************

 Orbital symmetries:
       Occupied  (A) (A) (A) (A) (A) (A) (A) (A)
       Virtual   (A) (A) (A) (A) (A) (A) (A) (A) (A) (A) (A) (A)
                 (A) (A) (A) (A) (A) (A) (A) (A) (A) (A)
 The electronic state is 1-A.
 Alpha  occ. eigenvalues --   -1.08708  -1.00043  -0.60739  -0.53485  -0.42878
 Alpha  occ. eigenvalues --   -0.36800  -0.33070  -0.28581
 Alpha virt. eigenvalues --    0.02944   0.08691   0.09431   0.11987   0.15431
 Alpha virt. eigenvalues --    0.16346   0.18738   0.23277   0.24281   0.32577
 Alpha virt. eigenvalues --    0.88760   1.01300   1.09571   1.11783   1.14703
 Alpha virt. eigenvalues --    1.17200   1.19455   1.22525   1.26274   1.29620
 Alpha virt. eigenvalues --    2.00827   2.52576
          Condensed to atoms (all electrons):
               1          2          3          4          5          6
     1  O    6.314077   0.280582   0.280539  -0.018558   0.001623  -0.000611
     2  H    0.280582   0.306741  -0.021666   0.000281  -0.000012   0.000674
     3  H    0.280539  -0.021666   0.306795   0.000259  -0.000013   0.000668
     4  O   -0.018558   0.000281   0.000259   6.314175   0.281171   0.277247
     5  H    0.001623  -0.000012  -0.000013   0.281171   0.359574  -0.023525
     6  H   -0.000611   0.000674   0.000668   0.277247  -0.023525   0.281321
 Mulliken charges:
               1
     1  O   -0.857652
     2  H    0.433401
     3  H    0.433418
     4  O   -0.854574
     5  H    0.381182
     6  H    0.464225
 Sum of Mulliken charges =   0.00000
 Mulliken charges with hydrogens summed into heavy atoms:
               1
     1  O    0.009167
     4  O   -0.009167
 Electronic spatial extent (au):  <R**2>=            148.0674
 Charge=              0.0000 electrons
 Dipole moment (field-independent basis, Debye):
    X=             -4.2317    Y=             -0.0504    Z=             -1.2593  Tot=              4.4154
 Quadrupole moment (field-independent basis, Debye-Ang):
   XX=             -9.1160   YY=            -11.8606   ZZ=            -14.1112
   XY=             -0.1622   XZ=             -5.9713   YZ=             -0.0149
 Traceless Quadrupole moment (field-independent basis, Debye-Ang):
   XX=              2.5800   YY=             -0.1647   ZZ=             -2.4153
   XY=             -0.1622   XZ=             -5.9713   YZ=             -0.0149
 Octapole moment (field-independent basis, Debye-Ang**2):
  XXX=            -17.6581  YYY=             -0.0184  ZZZ=             -1.3423  XYY=             -7.5718
  XXY=             -0.2123  XXZ=             -5.2446  XZZ=              1.2474  YZZ=             -0.0365
  YYZ=              0.0095  XYZ=              0.1866
 Hexadecapole moment (field-independent basis, Debye-Ang**3):
 XXXX=           -140.5714 YYYY=            -14.9394 ZZZZ=            -16.7112 XXXY=             -0.6138
 XXXZ=            -22.7900 YYYX=             -0.1433 YYYZ=             -0.0376 ZZZX=             -5.3166
 ZZZY=              0.0123 XXYY=            -24.6568 XXZZ=            -30.7655 YYZZ=             -5.6645
 XXYZ=             -0.0389 YYXZ=             -1.9820 ZZXY=             -0.0542
 N-N= 2.619079837512D+01 E-N=-1.345732414837D+02  KE= 2.721008824711D+01
 1\1\GINC-HUMAN\FOpt\RPBE1PBE\SDDAll\H4O2\HUMAN\25-Jul-2019\0\\# PBE1PB
 E/SDDAll scf=(maxcycle=512) opt=(cartesian,maxcycle=512)\\Cellular Aut
 omata job -34.4130305908\\0,1\O,-1.2685443295,0.02251611,-0.0629136333
 \H,-1.841785947,0.65734577,0.391206296\H,-1.7156533351,-0.821596206,-0
 .2225586898\O,1.4225844708,0.115543123,0.2758927633\H,1.907705152,0.46
 05472059,-0.4873043416\H,0.4503829887,0.095583997,0.1196636045\\Versio
 n=ES64L-G09RevD.01\State=1-A\HF=-34.4139094\RMSD=6.902e-09\RMSF=4.999e
 -05\Dipole=-1.6379955,0.0839727,-0.5723763\Quadrupole=2.2539934,-0.182
 7205,-2.0712729,1.7677031,-3.8883201,0.4876039\PG=C01 [X(H4O2)]\\@


 BULLDOZER: SOMEONE WHO SLEEPS THROUGH SPEECHES.
 Job cpu time:       0 days  0 hours  4 minutes 10.3 seconds.
 File lengths (MBytes):  RWF=      5 Int=      0 D2E=      0 Chk=      1 Scr=      1
 Normal termination of Gaussian 09 at Thu Jul 25 18:22:57 2019.
