 Entering Gaussian System, Link 0=g09
 Input=Kick0005-opt.com
 Output=Kick0005-opt.log
 Initial command:
 /home/human/g09/l1.exe "/tmp/Gau-5841.inp" -scrdir="/tmp/"
 Entering Link 1 = /home/human/g09/l1.exe PID=      5843.
  
 Copyright (c) 1988,1990,1992,1993,1995,1998,2003,2009,2013,
            Gaussian, Inc.  All Rights Reserved.
  
 This is part of the Gaussian(R) 09 program.  It is based on
 the Gaussian(R) 03 system (copyright 2003, Gaussian, Inc.),
 the Gaussian(R) 98 system (copyright 1998, Gaussian, Inc.),
 the Gaussian(R) 94 system (copyright 1995, Gaussian, Inc.),
 the Gaussian 92(TM) system (copyright 1992, Gaussian, Inc.),
 the Gaussian 90(TM) system (copyright 1990, Gaussian, Inc.),
 the Gaussian 88(TM) system (copyright 1988, Gaussian, Inc.),
 the Gaussian 86(TM) system (copyright 1986, Carnegie Mellon
 University), and the Gaussian 82(TM) system (copyright 1983,
 Carnegie Mellon University). Gaussian is a federally registered
 trademark of Gaussian, Inc.
  
 This software contains proprietary and confidential information,
 including trade secrets, belonging to Gaussian, Inc.
  
 This software is provided under written license and may be
 used, copied, transmitted, or stored only in accord with that
 written license.
  
 The following legend is applicable only to US Government
 contracts under FAR:
  
                    RESTRICTED RIGHTS LEGEND
  
 Use, reproduction and disclosure by the US Government is
 subject to restrictions as set forth in subparagraphs (a)
 and (c) of the Commercial Computer Software - Restricted
 Rights clause in FAR 52.227-19.
  
 Gaussian, Inc.
 340 Quinnipiac St., Bldg. 40, Wallingford CT 06492
  
  
 ---------------------------------------------------------------
 Warning -- This program may not be used in any manner that
 competes with the business of Gaussian, Inc. or will provide
 assistance to any competitor of Gaussian, Inc.  The licensee
 of this program is prohibited from giving any competitor of
 Gaussian, Inc. access to this program.  By using this program,
 the user acknowledges that Gaussian, Inc. is engaged in the
 business of creating and licensing software in the field of
 computational chemistry and represents and warrants to the
 licensee that it is not a competitor of Gaussian, Inc. and that
 it will not use this program in any manner prohibited above.
 ---------------------------------------------------------------
  

 Cite this work as:
 Gaussian 09, Revision D.01,
 M. J. Frisch, G. W. Trucks, H. B. Schlegel, G. E. Scuseria, 
 M. A. Robb, J. R. Cheeseman, G. Scalmani, V. Barone, B. Mennucci, 
 G. A. Petersson, H. Nakatsuji, M. Caricato, X. Li, H. P. Hratchian, 
 A. F. Izmaylov, J. Bloino, G. Zheng, J. L. Sonnenberg, M. Hada, 
 M. Ehara, K. Toyota, R. Fukuda, J. Hasegawa, M. Ishida, T. Nakajima, 
 Y. Honda, O. Kitao, H. Nakai, T. Vreven, J. A. Montgomery, Jr., 
 J. E. Peralta, F. Ogliaro, M. Bearpark, J. J. Heyd, E. Brothers, 
 K. N. Kudin, V. N. Staroverov, T. Keith, R. Kobayashi, J. Normand, 
 K. Raghavachari, A. Rendell, J. C. Burant, S. S. Iyengar, J. Tomasi, 
 M. Cossi, N. Rega, J. M. Millam, M. Klene, J. E. Knox, J. B. Cross, 
 V. Bakken, C. Adamo, J. Jaramillo, R. Gomperts, R. E. Stratmann, 
 O. Yazyev, A. J. Austin, R. Cammi, C. Pomelli, J. W. Ochterski, 
 R. L. Martin, K. Morokuma, V. G. Zakrzewski, G. A. Voth, 
 P. Salvador, J. J. Dannenberg, S. Dapprich, A. D. Daniels, 
 O. Farkas, J. B. Foresman, J. V. Ortiz, J. Cioslowski, 
 and D. J. Fox, Gaussian, Inc., Wallingford CT, 2013.
 
 ******************************************
 Gaussian 09:  ES64L-G09RevD.01 24-Apr-2013
                25-Jul-2019 
 ******************************************
 %NProc=4
 Will use up to    4 processors via shared memory.
 %mem=4GB
 ----------------------------------------------------------------
 # PBE1PBE/SDDAll scf=(maxcycle=512) opt=(cartesian,maxcycle=512)
 ----------------------------------------------------------------
 1/6=512,10=7,14=-1,18=10,26=3,38=1/1,3;
 2/12=2,17=6,18=5,29=2,40=1/2;
 3/5=17,6=6,11=2,16=1,25=1,30=1,71=1,74=-13/1,2,3;
 4//1;
 5/5=2,7=512,38=5/2;
 6/7=2,8=2,9=2,10=2,28=1/1;
 7/7=1,29=1/1,2,3,16;
 1/6=512,10=7,14=-1,18=10,26=3/3(2);
 2/29=1/2;
 99/12=1/99;
 2/29=1/2;
 3/5=17,6=6,11=2,16=1,25=1,30=1,71=1,74=-13/1,2,3;
 4/5=5,16=3,69=1/1;
 5/5=2,7=512,38=5/2;
 7/7=1/1,2,3,16;
 1/6=512,14=-1,18=10,26=3/3(-5);
 2/29=1/2;
 6/7=2,8=2,9=2,10=2,19=2,28=1/1;
 99/9=1,12=1/99;
 ------------------------------------
 Cellular Automata job -34.4138684074
 ------------------------------------
 Symbolic Z-matrix:
 Charge =  0 Multiplicity = 1
 8                    -1.27358  -0.00878   0.04406 
 1                    -1.83518  -0.76447  -0.18421 
 1                    -1.75604   0.82966   0.00261 
 8                     1.43384   0.02415  -0.10829 
 1                     0.45193  -0.02622  -0.04693 
 1                     1.85721  -0.16191   0.74239 
 

 GradGradGradGradGradGradGradGradGradGradGradGradGradGradGradGradGradGrad
 Berny optimization.
 Initialization pass.
 No Z-matrix variables, so optimization will use Cartesian coordinates.
 Trust Radius=3.00D-01 FncErr=1.00D-07 GrdErr=1.00D-06
 Number of steps in this run=    100 maximum allowed number of steps=    100.
 GradGradGradGradGradGradGradGradGradGradGradGradGradGradGradGradGradGrad

 ---------------------------------------------------------------------------------------------------
                            Z-MATRIX (ANGSTROMS AND DEGREES)
   CD    Cent   Atom    N1       Length/X        N2       Alpha/Y        N3        Beta/Z          J
 ---------------------------------------------------------------------------------------------------
      1      1  O        0  -1.273581         -0.008783          0.044057
      2      2  H        0  -1.835175         -0.764471         -0.184211
      3      3  H        0  -1.756037          0.829658          0.002613
      4      4  O        0   1.433839          0.024152         -0.108290
      5      5  H        0   0.451934         -0.026218         -0.046925
      6      6  H        0   1.857213         -0.161914          0.742392
 ---------------------------------------------------------------------------------------------------
                         Z-Matrix orientation:                         
 ---------------------------------------------------------------------
 Center     Atomic      Atomic             Coordinates (Angstroms)
 Number     Number       Type             X           Y           Z
 ---------------------------------------------------------------------
      1          8           0       -1.273581   -0.008783    0.044057
      2          1           0       -1.835175   -0.764471   -0.184211
      3          1           0       -1.756037    0.829658    0.002613
      4          8           0        1.433839    0.024152   -0.108290
      5          1           0        0.451934   -0.026218   -0.046925
      6          1           0        1.857213   -0.161914    0.742392
 ---------------------------------------------------------------------
                    Distance matrix (angstroms):
                    1          2          3          4          5
     1  O    0.000000
     2  H    0.968792   0.000000
     3  H    0.968228   1.606989   0.000000
     4  O    2.711903   3.363650   3.291876   0.000000
     5  H    1.728000   2.407225   2.368568   0.985109   0.000000
     6  H    3.211385   3.854270   3.819171   0.968259   1.617481
                    6
     6  H    0.000000
 Stoichiometry    H4O2
 Framework group  C1[X(H4O2)]
 Deg. of freedom    12
 Full point group                 C1      NOp   1
 Largest Abelian subgroup         C1      NOp   1
 Largest concise Abelian subgroup C1      NOp   1
                         Standard orientation:                         
 ---------------------------------------------------------------------
 Center     Atomic      Atomic             Coordinates (Angstroms)
 Number     Number       Type             X           Y           Z
 ---------------------------------------------------------------------
      1          8           0       -1.273581   -0.008783    0.044057
      2          1           0       -1.835175   -0.764471   -0.184211
      3          1           0       -1.756037    0.829658    0.002613
      4          8           0        1.433839    0.024152   -0.108290
      5          1           0        0.451934   -0.026218   -0.046925
      6          1           0        1.857213   -0.161914    0.742392
 ---------------------------------------------------------------------
 Rotational constants (GHZ):    242.8524389      7.2433081      7.1860687
 Standard basis: SDDAll (6D, 10F)
 There are    30 symmetry adapted cartesian basis functions of A   symmetry.
 There are    30 symmetry adapted basis functions of A   symmetry.
    30 basis functions,    54 primitive gaussians,    30 cartesian basis functions
     8 alpha electrons        8 beta electrons
       nuclear repulsion energy        26.1936429980 Hartrees.
 NAtoms=    6 NActive=    6 NUniq=    6 SFac= 1.00D+00 NAtFMM=   60 NAOKFM=F Big=F
 Integral buffers will be    131072 words long.
 Raffenetti 2 integral format.
 Two-electron integral symmetry is turned on.
 One-electron integrals computed using PRISM.
   1 Symmetry operations used in ECPInt.
 ECPInt:  NShTT=     171 NPrTT=     619 LenC2=     172 LenP2D=     564.
 LDataN:  DoStor=T MaxTD1= 4 Len=   56
 NBasis=    30 RedAO= T EigKep=  3.43D-02  NBF=    30
 NBsUse=    30 1.00D-06 EigRej= -1.00D+00 NBFU=    30
 ExpMin= 7.02D-02 ExpMax= 4.71D+01 ExpMxC= 4.71D+01 IAcc=2 IRadAn=         4 AccDes= 0.00D+00
 Harris functional with IExCor= 1009 and IRadAn=       4 diagonalized for initial guess.
 HarFok:  IExCor= 1009 AccDes= 0.00D+00 IRadAn=         4 IDoV= 1 UseB2=F ITyADJ=14
 ICtDFT=  3500011 ScaDFX=  1.000000  1.000000  1.000000  1.000000
 FoFCou: FMM=F IPFlag=           0 FMFlag=      100000 FMFlg1=           0
         NFxFlg=           0 DoJE=T BraDBF=F KetDBF=T FulRan=T
         wScrn=  0.000000 ICntrl=     500 IOpCl=  0 I1Cent=   200000004 NGrid=           0
         NMat0=    1 NMatS0=      1 NMatT0=    0 NMatD0=    1 NMtDS0=    0 NMtDT0=    0
 Petite list used in FoFCou.
 Keep R1 ints in memory in canonical form, NReq=1237769.
 Requested convergence on RMS density matrix=1.00D-08 within 512 cycles.
 Requested convergence on MAX density matrix=1.00D-06.
 Requested convergence on             energy=1.00D-06.
 No special actions if energy rises.
 Integral accuracy reduced to 1.0D-05 until final iterations.
 Initial convergence to 1.0D-05 achieved.  Increase integral accuracy.
 SCF Done:  E(RPBE1PBE) =  -34.4138684073     A.U. after   11 cycles
            NFock= 11  Conv=0.81D-08     -V/T= 2.2648

 **********************************************************************

            Population analysis using the SCF density.

 **********************************************************************

 Orbital symmetries:
       Occupied  (A) (A) (A) (A) (A) (A) (A) (A)
       Virtual   (A) (A) (A) (A) (A) (A) (A) (A) (A) (A) (A) (A)
                 (A) (A) (A) (A) (A) (A) (A) (A) (A) (A)
 The electronic state is 1-A.
 Alpha  occ. eigenvalues --   -1.08720  -0.99994  -0.60782  -0.53389  -0.42917
 Alpha  occ. eigenvalues --   -0.36814  -0.33038  -0.28515
 Alpha virt. eigenvalues --    0.02855   0.08653   0.09440   0.11969   0.15483
 Alpha virt. eigenvalues --    0.16332   0.18735   0.23277   0.24558   0.32684
 Alpha virt. eigenvalues --    0.88767   1.01384   1.09680   1.11582   1.14700
 Alpha virt. eigenvalues --    1.17274   1.19527   1.22655   1.26406   1.29664
 Alpha virt. eigenvalues --    2.01133   2.52034
          Condensed to atoms (all electrons):
               1          2          3          4          5          6
     1  O    6.320364   0.280237   0.281400  -0.018657  -0.001815   0.001422
     2  H    0.280237   0.305118  -0.021921   0.000309   0.000865  -0.000016
     3  H    0.281400  -0.021921   0.304996   0.000314   0.000850  -0.000009
     4  O   -0.018657   0.000309   0.000314   6.312496   0.277509   0.280907
     5  H   -0.001815   0.000865   0.000850   0.277509   0.280641  -0.023750
     6  H    0.001422  -0.000016  -0.000009   0.280907  -0.023750   0.361093
 Mulliken charges:
               1
     1  O   -0.862952
     2  H    0.435409
     3  H    0.434370
     4  O   -0.852878
     5  H    0.465700
     6  H    0.380352
 Sum of Mulliken charges =   0.00000
 Mulliken charges with hydrogens summed into heavy atoms:
               1
     1  O    0.006826
     4  O   -0.006826
 Electronic spatial extent (au):  <R**2>=            147.9852
 Charge=              0.0000 electrons
 Dipole moment (field-independent basis, Debye):
    X=             -4.3872    Y=             -0.3547    Z=              1.4454  Tot=              4.6328
 Quadrupole moment (field-independent basis, Debye-Ang):
   XX=             -9.0937   YY=            -11.8370   ZZ=            -14.1075
   XY=             -1.1128   XZ=              5.3512   YZ=              0.1010
 Traceless Quadrupole moment (field-independent basis, Debye-Ang):
   XX=              2.5857   YY=             -0.1576   ZZ=             -2.4281
   XY=             -1.1128   XZ=              5.3512   YZ=              0.1010
 Octapole moment (field-independent basis, Debye-Ang**2):
  XXX=            -19.3321  YYY=             -0.0175  ZZZ=              1.4483  XYY=             -7.4213
  XXY=             -1.6894  XXZ=              5.8848  XZZ=              1.2250  YZZ=             -0.2300
  YYZ=              0.1781  XYZ=             -1.2837
 Hexadecapole moment (field-independent basis, Debye-Ang**3):
 XXXX=           -140.6111 YYYY=            -15.0033 ZZZZ=            -16.6115 XXXY=             -3.0186
 XXXZ=             20.6921 YYYX=             -1.1010 YYYZ=              0.2444 ZZZX=              4.9090
 ZZZY=             -0.0945 XXYY=            -24.4786 XXZZ=            -30.8144 YYZZ=             -5.6344
 XXYZ=              0.3120 YYXZ=              1.6612 ZZXY=             -0.4046
 N-N= 2.619364299802D+01 E-N=-1.345801906866D+02  KE= 2.720858501371D+01
   1 Symmetry operations used in ECPInt.
 ECPInt:  NShTT=     171 NPrTT=     619 LenC2=     172 LenP2D=     564.
 LDataN:  DoStor=T MaxTD1= 5 Len=  102
 Calling FoFJK, ICntrl=      2127 FMM=F ISym2X=0 I1Cent= 0 IOpClX= 0 NMat=1 NMatS=1 NMatT=0.
 ***** Axes restored to original set *****
 -------------------------------------------------------------------
 Center     Atomic                   Forces (Hartrees/Bohr)
 Number     Number              X              Y              Z
 -------------------------------------------------------------------
      1        8          -0.000428225   -0.000832345    0.000213825
      2        1           0.000265908    0.000424214   -0.000097924
      3        1           0.000040212    0.000175489   -0.000129393
      4        8          -0.000101698   -0.000488801    0.000313429
      5        1           0.000093182    0.000581616   -0.000008493
      6        1           0.000130620    0.000139827   -0.000291444
 -------------------------------------------------------------------
 Cartesian Forces:  Max     0.000832345 RMS     0.000337260

 GradGradGradGradGradGradGradGradGradGradGradGradGradGradGradGradGradGrad
 Berny optimization.
 Search for a local minimum.
 Step number   1 out of a maximum of  100
 All quantities printed in internal units (Hartrees-Bohrs-Radians)
 Second derivative matrix not updated -- first step.
 The second derivative matrix:
                          X1        Y1        Z1        X2        Y2
           X1           0.43618
           Y1           0.00084   0.73004
           Z1           0.11636   0.07612   0.03893
           X2          -0.23936  -0.23777  -0.08853   0.20876
           Y2          -0.19523  -0.33003  -0.08635   0.21967   0.34449
           Z2          -0.08410  -0.09769  -0.03258   0.07849   0.09437
           X3          -0.19682   0.23693  -0.02784   0.03060  -0.02444
           Y3           0.19439  -0.40001   0.01023   0.01810  -0.01446
           Z3          -0.03226   0.02157  -0.00636   0.01004  -0.00802
           X4           0.00000   0.00000   0.00000   0.00000   0.00000
           Y4           0.00000   0.00000   0.00000   0.00000   0.00000
           Z4           0.00000   0.00000   0.00000   0.00000   0.00000
           X5           0.00000   0.00000   0.00000   0.00000   0.00000
           Y5           0.00000   0.00000   0.00000   0.00000   0.00000
           Z5           0.00000   0.00000   0.00000   0.00000   0.00000
           X6           0.00000   0.00000   0.00000   0.00000   0.00000
           Y6           0.00000   0.00000   0.00000   0.00000   0.00000
           Z6           0.00000   0.00000   0.00000   0.00000   0.00000
                          Z2        X3        Y3        Z3        X4
           Z2           0.03073
           X3           0.00562   0.16622
           Y3           0.00332  -0.21249   0.41447
           Z3           0.00184   0.02222  -0.01356   0.00451
           X4           0.00000   0.00000   0.00000   0.00000   0.63624
           Y4           0.00000   0.00000   0.00000   0.00000  -0.00541
           Z4           0.00000   0.00000   0.00000   0.00000   0.12083
           X5           0.00000   0.00000   0.00000   0.00000  -0.49797
           Y5           0.00000   0.00000   0.00000   0.00000  -0.03453
           Z5           0.00000   0.00000   0.00000   0.00000   0.06904
           X6           0.00000   0.00000   0.00000   0.00000  -0.13827
           Y6           0.00000   0.00000   0.00000   0.00000   0.03993
           Z6           0.00000   0.00000   0.00000   0.00000  -0.18988
                          Y4        Z4        X5        Y5        Z5
           Y4           0.02720
           Z4          -0.11564   0.50680
           X5          -0.02448   0.02663   0.50102
           Y5          -0.00511   0.01627   0.02493   0.00371
           Z5           0.01782  -0.06458  -0.02805  -0.01180   0.04550
           X6           0.02989  -0.14746  -0.00305   0.00960  -0.04099
           Y6          -0.02208   0.09937  -0.00045   0.00141  -0.00602
           Z6           0.09783  -0.44222   0.00142  -0.00447   0.01909
                          X6        Y6        Z6
           X6           0.14133
           Y6          -0.03949   0.02067
           Z6           0.18846  -0.09336   0.42313
 ITU=  0
     Eigenvalues ---    0.00000   0.00000   0.00000   0.00000   0.00000
     Eigenvalues ---    0.00000   0.15213   0.16000   0.80490   0.86939
     Eigenvalues ---    1.10293   1.12443
 RFO step:  Lambda=-8.30328465D-04 EMin=-6.66133815D-16
 Linear search not attempted -- first point.
 Maximum step size (   0.300) exceeded in Quadratic search.
    -- Step size scaled by   0.300
 TrRot= -0.005838 -0.030054  0.010694 -2.133516 -0.013118  2.128769
 Variable       Old X    -DE/DX   Delta X   Delta X   Delta X     New X
                                 (Linear)    (Quad)   (Total)
    X1       -2.40672  -0.00043   0.00000  -0.04121  -0.04609  -2.45281
    Y1       -0.01660  -0.00083   0.00000  -0.04142  -0.05794  -0.07454
    Z1        0.08326   0.00021   0.00000   0.07989   0.10822   0.19147
    X2       -3.46798   0.00027   0.00000  -0.02730  -0.04306  -3.51103
    Y2       -1.44464   0.00042   0.00000   0.00956  -0.00888  -1.45352
    Z2       -0.34811  -0.00010   0.00000  -0.12169  -0.07071  -0.41881
    X3       -3.31843   0.00004   0.00000   0.04121   0.04247  -3.27596
    Y3        1.56783   0.00018   0.00000  -0.00087  -0.01599   1.55184
    Z3        0.00494  -0.00013   0.00000  -0.06207  -0.04605  -0.04111
    X4        2.70956  -0.00010   0.00000   0.02068   0.01302   2.72258
    Y4        0.04564  -0.00049   0.00000  -0.07019  -0.11586  -0.07022
    Z4       -0.20464   0.00031   0.00000  -0.02534  -0.03331  -0.23795
    X5        0.85403   0.00009   0.00000   0.01083   0.00550   0.85953
    Y5       -0.04954   0.00058   0.00000   0.21740   0.18279   0.13325
    Z5       -0.08868  -0.00001   0.00000   0.05233   0.05515  -0.03352
    X6        3.50962   0.00013   0.00000   0.02554   0.02817   3.53779
    Y6       -0.30597   0.00014   0.00000   0.04729   0.01588  -0.29009
    Z6        1.40292  -0.00029   0.00000  -0.00220  -0.01330   1.38961
         Item               Value     Threshold  Converged?
 Maximum Force            0.000832     0.000450     NO 
 RMS     Force            0.000337     0.000300     NO 
 Maximum Displacement     0.182792     0.001800     NO 
 RMS     Displacement     0.066963     0.001200     NO 
 Predicted change in Energy=-2.446917D-04
 GradGradGradGradGradGradGradGradGradGradGradGradGradGradGradGradGradGrad

                          Input orientation:                          
 ---------------------------------------------------------------------
 Center     Atomic      Atomic             Coordinates (Angstroms)
 Number     Number       Type             X           Y           Z
 ---------------------------------------------------------------------
      1          8           0       -1.297970   -0.039446    0.101323
      2          1           0       -1.857959   -0.769172   -0.221627
      3          1           0       -1.733564    0.821196   -0.021755
      4          8           0        1.440727   -0.037157   -0.125918
      5          1           0        0.454842    0.070511   -0.017739
      6          1           0        1.872117   -0.153509    0.735352
 ---------------------------------------------------------------------
                    Distance matrix (angstroms):
                    1          2          3          4          5
     1  O    0.000000
     2  H    0.974876   0.000000
     3  H    0.972417   1.607698   0.000000
     4  O    2.748109   3.380286   3.289945   0.000000
     5  H    1.760289   2.468945   2.313583   0.997629   0.000000
     6  H    3.234882   3.899785   3.811063   0.970269   1.620494
                    6
     6  H    0.000000
 Stoichiometry    H4O2
 Framework group  C1[X(H4O2)]
 Deg. of freedom    12
 Full point group                 C1      NOp   1
 Largest Abelian subgroup         C1      NOp   1
 Largest concise Abelian subgroup C1      NOp   1
                         Standard orientation:                         
 ---------------------------------------------------------------------
 Center     Atomic      Atomic             Coordinates (Angstroms)
 Number     Number       Type             X           Y           Z
 ---------------------------------------------------------------------
      1          8           0       -1.293083   -0.010213    0.066287
      2          1           0       -1.842261   -0.771531   -0.196739
      3          1           0       -1.732504    0.831530   -0.143411
      4          8           0        1.449056   -0.005481   -0.114687
      5          1           0        0.460715    0.103283   -0.033359
      6          1           0        1.866265   -0.037737    0.760709
 ---------------------------------------------------------------------
 Rotational constants (GHZ):    232.3941109      7.0803275      7.0363001
 Standard basis: SDDAll (6D, 10F)
 There are    30 symmetry adapted cartesian basis functions of A   symmetry.
 There are    30 symmetry adapted basis functions of A   symmetry.
    30 basis functions,    54 primitive gaussians,    30 cartesian basis functions
     8 alpha electrons        8 beta electrons
       nuclear repulsion energy        25.9720616775 Hartrees.
 NAtoms=    6 NActive=    6 NUniq=    6 SFac= 1.00D+00 NAtFMM=   60 NAOKFM=F Big=F
 Integral buffers will be    131072 words long.
 Raffenetti 2 integral format.
 Two-electron integral symmetry is turned on.
 One-electron integrals computed using PRISM.
   1 Symmetry operations used in ECPInt.
 ECPInt:  NShTT=     171 NPrTT=     619 LenC2=     172 LenP2D=     564.
 LDataN:  DoStor=T MaxTD1= 4 Len=   56
 NBasis=    30 RedAO= T EigKep=  3.62D-02  NBF=    30
 NBsUse=    30 1.00D-06 EigRej= -1.00D+00 NBFU=    30
 Initial guess from the checkpoint file:  "/tmp/Gau-5843.chk"
 B after Tr=     0.000000    0.000000    0.000000
         Rot=    0.998370    0.057069    0.000395    0.000661 Ang=   6.54 deg.
 ExpMin= 7.02D-02 ExpMax= 4.71D+01 ExpMxC= 4.71D+01 IAcc=2 IRadAn=         4 AccDes= 0.00D+00
 Harris functional with IExCor= 1009 and IRadAn=       4 diagonalized for initial guess.
 HarFok:  IExCor= 1009 AccDes= 0.00D+00 IRadAn=         4 IDoV= 1 UseB2=F ITyADJ=14
 ICtDFT=  3500011 ScaDFX=  1.000000  1.000000  1.000000  1.000000
 FoFCou: FMM=F IPFlag=           0 FMFlag=      100000 FMFlg1=           0
         NFxFlg=           0 DoJE=T BraDBF=F KetDBF=T FulRan=T
         wScrn=  0.000000 ICntrl=     500 IOpCl=  0 I1Cent=   200000004 NGrid=           0
         NMat0=    1 NMatS0=      1 NMatT0=    0 NMatD0=    1 NMtDS0=    0 NMtDT0=    0
 Petite list used in FoFCou.
 Keep R1 ints in memory in canonical form, NReq=1237769.
 Requested convergence on RMS density matrix=1.00D-08 within 512 cycles.
 Requested convergence on MAX density matrix=1.00D-06.
 Requested convergence on             energy=1.00D-06.
 No special actions if energy rises.
 Integral accuracy reduced to 1.0D-05 until final iterations.
 Initial convergence to 1.0D-05 achieved.  Increase integral accuracy.
 SCF Done:  E(RPBE1PBE) =  -34.4127950861     A.U. after   12 cycles
            NFock= 12  Conv=0.49D-08     -V/T= 2.2676
   1 Symmetry operations used in ECPInt.
 ECPInt:  NShTT=     171 NPrTT=     619 LenC2=     172 LenP2D=     564.
 LDataN:  DoStor=T MaxTD1= 5 Len=  102
 Calling FoFJK, ICntrl=      2127 FMM=F ISym2X=0 I1Cent= 0 IOpClX= 0 NMat=1 NMatS=1 NMatT=0.
 ***** Axes restored to original set *****
 -------------------------------------------------------------------
 Center     Atomic                   Forces (Hartrees/Bohr)
 Number     Number              X              Y              Z
 -------------------------------------------------------------------
      1        8          -0.004283662    0.003033637   -0.002984929
      2        1           0.004922058    0.003140461    0.002046980
      3        1          -0.000205799   -0.002846576    0.000890390
      4        8          -0.010864785    0.003880854    0.003320673
      5        1           0.010342811   -0.007111950   -0.001804810
      6        1           0.000089376   -0.000096426   -0.001468303
 -------------------------------------------------------------------
 Cartesian Forces:  Max     0.010864785 RMS     0.004659491

 GradGradGradGradGradGradGradGradGradGradGradGradGradGradGradGradGradGrad
 Berny optimization.
 Search for a local minimum.
 Step number   2 out of a maximum of  100
 All quantities printed in internal units (Hartrees-Bohrs-Radians)
 Update second derivatives using D2CorN and points    2    1
 DE=  1.07D-03 DEPred=-2.45D-04 R=-4.39D+00
 Trust test=-4.39D+00 RLast= 2.84D-01 DXMaxT set to 1.50D-01
 The second derivative matrix:
                          X1        Y1        Z1        X2        Y2
           X1           0.43423
           Y1           0.00113   0.73385
           Z1           0.11781   0.07151   0.04286
           X2          -0.23914  -0.23494  -0.09195   0.21086
           Y2          -0.19488  -0.32907  -0.08776   0.22038   0.34470
           Z2          -0.08506  -0.09470  -0.03511   0.08071   0.09529
           X3          -0.19592   0.23554  -0.02708   0.02957  -0.02493
           Y3           0.19302  -0.40078   0.01236   0.01753  -0.01447
           Z3          -0.03294   0.02346  -0.00788   0.01144  -0.00743
           X4          -0.00311  -0.00468   0.00818  -0.00348  -0.00080
           Y4          -0.00128   0.00528  -0.00485   0.00393   0.00156
           Z4           0.00043   0.00252  -0.00326   0.00187   0.00060
           X5           0.00336   0.00390  -0.00752   0.00290   0.00056
           Y5           0.00170  -0.00873   0.00840  -0.00649  -0.00253
           Z5           0.00056  -0.00257   0.00242  -0.00191  -0.00075
           X6           0.00058  -0.00095   0.00056  -0.00071  -0.00033
           Y6           0.00031  -0.00055   0.00035  -0.00041  -0.00019
           Z6          -0.00080  -0.00021   0.00097  -0.00016   0.00005
                          Z2        X3        Y3        Z3        X4
           Z2           0.03237
           X3           0.00513   0.16621
           Y3           0.00193  -0.21154   0.41375
           Z3           0.00283   0.02195  -0.01448   0.00510
           X4          -0.00534   0.00312  -0.00088  -0.00346   0.63815
           Y4           0.00314  -0.00106  -0.00218   0.00191  -0.01424
           Z4           0.00212  -0.00104  -0.00035   0.00134   0.11807
           X5           0.00492  -0.00299   0.00125   0.00321  -0.49848
           Y5          -0.00543   0.00197   0.00334  -0.00333  -0.02049
           Z5          -0.00156   0.00055   0.00102  -0.00096   0.07327
           X6          -0.00036   0.00001   0.00062  -0.00020  -0.13620
           Y6          -0.00022   0.00002   0.00035  -0.00013   0.04111
           Z6          -0.00064   0.00048  -0.00048  -0.00043  -0.19071
                          Y4        Z4        X5        Y5        Z5
           Y4           0.03309
           Z4          -0.11195   0.50843
           X5          -0.01646   0.02884   0.50025
           Y5          -0.01520   0.01022   0.01231   0.02086
           Z5           0.01490  -0.06637  -0.03186  -0.00682   0.04694
           X6           0.02912  -0.14817  -0.00504   0.01100  -0.04060
           Y6          -0.02255   0.09897  -0.00156   0.00225  -0.00578
           Z6           0.09686  -0.44226   0.00242  -0.00304   0.01953
                          X6        Y6        Z6
           X6           0.14135
           Y6          -0.03946   0.02069
           Z6           0.18877  -0.09319   0.42283
 ITU= -1  0
 Energy rises -- skip Quadratic search.
 Quartic linear search produced a step of -0.88447.
 TrRot=  0.000000  0.000000  0.000000  0.000000  0.000000  0.000000
 Variable       Old X    -DE/DX   Delta X   Delta X   Delta X     New X
                                 (Linear)    (Quad)   (Total)
    X1       -2.45281  -0.00428   0.04076   0.00000   0.04076  -2.41204
    Y1       -0.07454   0.00303   0.05125   0.00000   0.05125  -0.02329
    Z1        0.19147  -0.00298  -0.09571   0.00000  -0.09571   0.09576
    X2       -3.51103   0.00492   0.03808   0.00000   0.03808  -3.47295
    Y2       -1.45352   0.00314   0.00786   0.00000   0.00786  -1.44567
    Z2       -0.41881   0.00205   0.06254   0.00000   0.06254  -0.35628
    X3       -3.27596  -0.00021  -0.03756   0.00000  -0.03756  -3.31352
    Y3        1.55184  -0.00285   0.01414   0.00000   0.01414   1.56598
    Z3       -0.04111   0.00089   0.04073   0.00000   0.04073  -0.00038
    X4        2.72258  -0.01086  -0.01151   0.00000  -0.01151   2.71107
    Y4       -0.07022   0.00388   0.10247   0.00000   0.10247   0.03226
    Z4       -0.23795   0.00332   0.02946   0.00000   0.02946  -0.20849
    X5        0.85953   0.01034  -0.00486   0.00000  -0.00486   0.85467
    Y5        0.13325  -0.00711  -0.16167   0.00000  -0.16167  -0.02843
    Z5       -0.03352  -0.00180  -0.04878   0.00000  -0.04878  -0.08230
    X6        3.53779   0.00009  -0.02491   0.00000  -0.02491   3.51288
    Y6       -0.29009  -0.00010  -0.01405   0.00000  -0.01405  -0.30414
    Z6        1.38961  -0.00147   0.01177   0.00000   0.01177   1.40138
         Item               Value     Threshold  Converged?
 Maximum Force            0.010865     0.000450     NO 
 RMS     Force            0.004659     0.000300     NO 
 Maximum Displacement     0.161673     0.001800     NO 
 RMS     Displacement     0.059227     0.001200     NO 
 Predicted change in Energy=-1.682921D-04
 GradGradGradGradGradGradGradGradGradGradGradGradGradGradGradGradGradGrad

                          Input orientation:                          
 ---------------------------------------------------------------------
 Center     Atomic      Atomic             Coordinates (Angstroms)
 Number     Number       Type             X           Y           Z
 ---------------------------------------------------------------------
      1          8           0       -1.276399   -0.012326    0.050673
      2          1           0       -1.837807   -0.765014   -0.188534
      3          1           0       -1.753441    0.828680   -0.000202
      4          8           0        1.434635    0.017069   -0.110327
      5          1           0        0.452270   -0.015042   -0.043553
      6          1           0        1.858935   -0.160943    0.741579
 ---------------------------------------------------------------------
                    Distance matrix (angstroms):
                    1          2          3          4          5
     1  O    0.000000
     2  H    0.968989   0.000000
     3  H    0.968219   1.607000   0.000000
     4  O    2.715969   3.365508   3.291605   0.000000
     5  H    1.731237   2.414111   2.361971   0.985155   0.000000
     6  H    3.213994   3.859523   3.818226   0.968226   1.617537
                    6
     6  H    0.000000
 Stoichiometry    H4O2
 Framework group  C1[X(H4O2)]
 Deg. of freedom    12
 Full point group                 C1      NOp   1
 Largest Abelian subgroup         C1      NOp   1
 Largest concise Abelian subgroup C1      NOp   1
                         Standard orientation:                         
 ---------------------------------------------------------------------
 Center     Atomic      Atomic             Coordinates (Angstroms)
 Number     Number       Type             X           Y           Z
 ---------------------------------------------------------------------
      1          8           0       -1.275779   -0.009233    0.046599
      2          1           0       -1.836091   -0.764512   -0.186951
      3          1           0       -1.753407    0.830882   -0.012788
      4          8           0        1.435546    0.020982   -0.109247
      5          1           0        0.453076   -0.011350   -0.044148
      6          1           0        1.858285   -0.149009    0.745070
 ---------------------------------------------------------------------
 Rotational constants (GHZ):    242.1200037      7.2247249      7.1692765
 Standard basis: SDDAll (6D, 10F)
 There are    30 symmetry adapted cartesian basis functions of A   symmetry.
 There are    30 symmetry adapted basis functions of A   symmetry.
    30 basis functions,    54 primitive gaussians,    30 cartesian basis functions
     8 alpha electrons        8 beta electrons
       nuclear repulsion energy        26.1776038805 Hartrees.
 NAtoms=    6 NActive=    6 NUniq=    6 SFac= 1.00D+00 NAtFMM=   60 NAOKFM=F Big=F
 Integral buffers will be    131072 words long.
 Raffenetti 2 integral format.
 Two-electron integral symmetry is turned on.
 One-electron integrals computed using PRISM.
   1 Symmetry operations used in ECPInt.
 ECPInt:  NShTT=     171 NPrTT=     619 LenC2=     172 LenP2D=     564.
 LDataN:  DoStor=T MaxTD1= 4 Len=   56
 NBasis=    30 RedAO= T EigKep=  3.44D-02  NBF=    30
 NBsUse=    30 1.00D-06 EigRej= -1.00D+00 NBFU=    30
 Lowest energy guess from the checkpoint file:  "/tmp/Gau-5843.chk"
 B after Tr=     0.000000    0.000000    0.000000
         Rot=    0.999983    0.005748    0.000034    0.000077 Ang=   0.66 deg.
 B after Tr=     0.000000    0.000000    0.000000
         Rot=    0.998683   -0.051308   -0.000360   -0.000583 Ang=  -5.88 deg.
 Keep R1 ints in memory in canonical form, NReq=1237769.
 Requested convergence on RMS density matrix=1.00D-08 within 512 cycles.
 Requested convergence on MAX density matrix=1.00D-06.
 Requested convergence on             energy=1.00D-06.
 No special actions if energy rises.
 Integral accuracy reduced to 1.0D-05 until final iterations.
 Initial convergence to 1.0D-05 achieved.  Increase integral accuracy.
 SCF Done:  E(RPBE1PBE) =  -34.4138814127     A.U. after    8 cycles
            NFock=  8  Conv=0.52D-08     -V/T= 2.2649
   1 Symmetry operations used in ECPInt.
 ECPInt:  NShTT=     171 NPrTT=     619 LenC2=     172 LenP2D=     564.
 LDataN:  DoStor=T MaxTD1= 5 Len=  102
 Calling FoFJK, ICntrl=      2127 FMM=F ISym2X=0 I1Cent= 0 IOpClX= 0 NMat=1 NMatS=1 NMatT=0.
 ***** Axes restored to original set *****
 -------------------------------------------------------------------
 Center     Atomic                   Forces (Hartrees/Bohr)
 Number     Number              X              Y              Z
 -------------------------------------------------------------------
      1        8          -0.000310246   -0.000412236    0.000086351
      2        1           0.000531632    0.000475720   -0.000016776
      3        1          -0.000214392    0.000137870   -0.000085276
      4        8          -0.000296288   -0.000079988    0.000284112
      5        1           0.000187571   -0.000222366   -0.000006551
      6        1           0.000101724    0.000101001   -0.000261859
 -------------------------------------------------------------------
 Cartesian Forces:  Max     0.000531632 RMS     0.000258609

 GradGradGradGradGradGradGradGradGradGradGradGradGradGradGradGradGradGrad
 Berny optimization.
 Search for a local minimum.
 Step number   3 out of a maximum of  100
 All quantities printed in internal units (Hartrees-Bohrs-Radians)
 Update second derivatives using D2CorN and points    1    3
 The second derivative matrix:
                          X1        Y1        Z1        X2        Y2
           X1           0.43556
           Y1           0.00236   0.73483
           Z1           0.11700   0.07154   0.03936
           X2          -0.23886  -0.23500  -0.09047   0.21024
           Y2          -0.19518  -0.32954  -0.08661   0.21992   0.34453
           Z2          -0.08456  -0.09475  -0.03276   0.07972   0.09453
           X3          -0.19687   0.23476  -0.02698   0.02957  -0.02460
           Y3           0.19342  -0.40043   0.01222   0.01758  -0.01459
           Z3          -0.03255   0.02350  -0.00649   0.01085  -0.00791
           X4          -0.00233  -0.00358   0.00570  -0.00248  -0.00050
           Y4           0.00014   0.00593  -0.00238   0.00284   0.00044
           Z4           0.00037   0.00212  -0.00146   0.00113   0.00019
           X5           0.00224   0.00254  -0.00516   0.00196   0.00041
           Y5          -0.00085  -0.01016   0.00525  -0.00508  -0.00081
           Z5           0.00027  -0.00240   0.00035  -0.00104  -0.00014
           X6           0.00025  -0.00109  -0.00008  -0.00043  -0.00005
           Y6           0.00012  -0.00063  -0.00001  -0.00026  -0.00003
           Z6          -0.00053   0.00000   0.00100  -0.00018  -0.00005
                          Z2        X3        Y3        Z3        X4
           Z2           0.03079
           X3           0.00510   0.16683
           Y3           0.00201  -0.21181   0.41387
           Z3           0.00189   0.02187  -0.01441   0.00455
           X4          -0.00371   0.00232  -0.00060  -0.00242   0.63760
           Y4           0.00145  -0.00167  -0.00184   0.00096  -0.01174
           Z4           0.00092  -0.00078  -0.00042   0.00060   0.11892
           X5           0.00338  -0.00199   0.00087   0.00220  -0.49830
           Y5          -0.00326   0.00322   0.00269  -0.00215  -0.02435
           Z5          -0.00018   0.00049   0.00099  -0.00012   0.07197
           X6           0.00008   0.00015   0.00055   0.00005  -0.13681
           Y6           0.00002   0.00010   0.00030   0.00001   0.04076
           Z6          -0.00066   0.00031  -0.00040  -0.00043  -0.19045
                          Y4        Z4        X5        Y5        Z5
           Y4           0.03180
           Z4          -0.11350   0.50765
           X5          -0.01905   0.02815   0.50049
           Y5          -0.01397   0.01242   0.01643   0.02020
           Z5           0.01647  -0.06536  -0.03068  -0.00891   0.04574
           X6           0.02947  -0.14778  -0.00441   0.01064  -0.04100
           Y6          -0.02235   0.09918  -0.00121   0.00206  -0.00600
           Z6           0.09699  -0.44236   0.00211  -0.00334   0.01958
                          X6        Y6        Z6
           X6           0.14126
           Y6          -0.03952   0.02066
           Z6           0.18874  -0.09320   0.42288
 ITU=  0 -1  0
     Eigenvalues ---   -0.00308   0.00000   0.00000   0.00000   0.00000
     Eigenvalues ---    0.02949   0.15213   0.16002   0.80494   0.86962
     Eigenvalues ---    1.10146   1.12415
 RFO step:  Lambda=-3.13601114D-03 EMin=-3.08201232D-03
 I=     1 Eig=   -3.08D-03 Dot1= -1.54D-04
 I=     1 Stepn= -3.75D-01 RXN=   3.75D-01 EDone=F
 Mixed    1 eigenvectors in step.  Raw Step.Grad=  1.54D-04.
 RFO eigenvector is Hessian eigenvector with negative curvature.
 Taking step of  3.75D-01 in eigenvector direction(s).  Step.Grad=  5.49D-05.
 Quartic linear search produced a step of -0.08220.
 Maximum step size (   0.150) exceeded in Quadratic search.
    -- Step size scaled by   0.400
 TrRot= -0.006730 -0.000084  0.010177  0.624150  0.004908 -0.625953
 Variable       Old X    -DE/DX   Delta X   Delta X   Delta X     New X
                                 (Linear)    (Quad)   (Total)
    X1       -2.41204  -0.00031   0.00044  -0.02378  -0.02947  -2.44152
    Y1       -0.02329  -0.00041   0.00055   0.01315   0.01845  -0.00484
    Z1        0.09576   0.00009  -0.00103   0.05523   0.07409   0.16985
    X2       -3.47295   0.00053   0.00041   0.04678   0.03617  -3.43679
    Y2       -1.44567   0.00048   0.00008   0.00123   0.00619  -1.43948
    Z2       -0.35628  -0.00002   0.00067  -0.07912  -0.05049  -0.40677
    X3       -3.31352  -0.00021  -0.00040  -0.03215  -0.03666  -3.35018
    Y3        1.56598   0.00014   0.00015   0.00202   0.00796   1.57394
    Z3       -0.00038  -0.00009   0.00044  -0.05863  -0.03922  -0.03960
    X4        2.71107  -0.00030  -0.00012  -0.00218  -0.00987   2.70120
    Y4        0.03226  -0.00008   0.00110  -0.00936  -0.01386   0.01840
    Z4       -0.20849   0.00028   0.00032  -0.00698  -0.00732  -0.21581
    X5        0.85467   0.00019  -0.00005   0.00312  -0.00391   0.85076
    Y5       -0.02843  -0.00022  -0.00174  -0.02410  -0.02758  -0.05601
    Z5       -0.08230  -0.00001  -0.00052   0.04604   0.05244  -0.02987
    X6        3.51288   0.00010  -0.00027   0.04583   0.04375   3.55663
    Y6       -0.30414   0.00010  -0.00015   0.01156   0.00883  -0.29531
    Z6        1.40138  -0.00026   0.00013  -0.02646  -0.02949   1.37189
         Item               Value     Threshold  Converged?
 Maximum Force            0.000532     0.000450     NO 
 RMS     Force            0.000259     0.000300     YES
 Maximum Displacement     0.074087     0.001800     NO 
 RMS     Displacement     0.033557     0.001200     NO 
 Predicted change in Energy=-9.692618D-05
 GradGradGradGradGradGradGradGradGradGradGradGradGradGradGradGradGradGrad

                          Input orientation:                          
 ---------------------------------------------------------------------
 Center     Atomic      Atomic             Coordinates (Angstroms)
 Number     Number       Type             X           Y           Z
 ---------------------------------------------------------------------
      1          8           0       -1.291995   -0.002560    0.089878
      2          1           0       -1.818669   -0.761738   -0.215254
      3          1           0       -1.772841    0.832895   -0.020957
      4          8           0        1.429413    0.009735   -0.114203
      5          1           0        0.450200   -0.029638   -0.015805
      6          1           0        1.882085   -0.156270    0.725975
 ---------------------------------------------------------------------
                    Distance matrix (angstroms):
                    1          2          3          4          5
     1  O    0.000000
     2  H    0.973059   0.000000
     3  H    0.970300   1.607080   0.000000
     4  O    2.729077   3.339973   3.307675   0.000000
     5  H    1.745608   2.392388   2.384513   0.984931   0.000000
     6  H    3.240838   3.866276   3.859383   0.968694   1.617581
                    6
     6  H    0.000000
 Stoichiometry    H4O2
 Framework group  C1[X(H4O2)]
 Deg. of freedom    12
 Full point group                 C1      NOp   1
 Largest Abelian subgroup         C1      NOp   1
 Largest concise Abelian subgroup C1      NOp   1
                         Standard orientation:                         
 ---------------------------------------------------------------------
 Center     Atomic      Atomic             Coordinates (Angstroms)
 Number     Number       Type             X           Y           Z
 ---------------------------------------------------------------------
      1          8           0       -1.284753   -0.006157    0.061582
      2          1           0       -1.802769   -0.779709   -0.221470
      3          1           0       -1.769960    0.821230   -0.085005
      4          8           0        1.438652    0.018257   -0.112572
      5          1           0        0.458674   -0.024543   -0.023685
      6          1           0        1.882864   -0.113782    0.738081
 ---------------------------------------------------------------------
 Rotational constants (GHZ):    237.9972283      7.1635957      7.1133446
 Standard basis: SDDAll (6D, 10F)
 There are    30 symmetry adapted cartesian basis functions of A   symmetry.
 There are    30 symmetry adapted basis functions of A   symmetry.
    30 basis functions,    54 primitive gaussians,    30 cartesian basis functions
     8 alpha electrons        8 beta electrons
       nuclear repulsion energy        26.0996990358 Hartrees.
 NAtoms=    6 NActive=    6 NUniq=    6 SFac= 1.00D+00 NAtFMM=   60 NAOKFM=F Big=F
 Integral buffers will be    131072 words long.
 Raffenetti 2 integral format.
 Two-electron integral symmetry is turned on.
 One-electron integrals computed using PRISM.
   1 Symmetry operations used in ECPInt.
 ECPInt:  NShTT=     171 NPrTT=     619 LenC2=     172 LenP2D=     566.
 LDataN:  DoStor=T MaxTD1= 4 Len=   56
 NBasis=    30 RedAO= T EigKep=  3.52D-02  NBF=    30
 NBsUse=    30 1.00D-06 EigRej= -1.00D+00 NBFU=    30
 Initial guess from the checkpoint file:  "/tmp/Gau-5843.chk"
 B after Tr=     0.000000    0.000000    0.000000
         Rot=    0.999858    0.016822   -0.000134   -0.001015 Ang=   1.93 deg.
 ExpMin= 7.02D-02 ExpMax= 4.71D+01 ExpMxC= 4.71D+01 IAcc=2 IRadAn=         4 AccDes= 0.00D+00
 Harris functional with IExCor= 1009 and IRadAn=       4 diagonalized for initial guess.
 HarFok:  IExCor= 1009 AccDes= 0.00D+00 IRadAn=         4 IDoV= 1 UseB2=F ITyADJ=14
 ICtDFT=  3500011 ScaDFX=  1.000000  1.000000  1.000000  1.000000
 FoFCou: FMM=F IPFlag=           0 FMFlag=      100000 FMFlg1=           0
         NFxFlg=           0 DoJE=T BraDBF=F KetDBF=T FulRan=T
         wScrn=  0.000000 ICntrl=     500 IOpCl=  0 I1Cent=   200000004 NGrid=           0
         NMat0=    1 NMatS0=      1 NMatT0=    0 NMatD0=    1 NMtDS0=    0 NMtDT0=    0
 Petite list used in FoFCou.
 Keep R1 ints in memory in canonical form, NReq=1237769.
 Requested convergence on RMS density matrix=1.00D-08 within 512 cycles.
 Requested convergence on MAX density matrix=1.00D-06.
 Requested convergence on             energy=1.00D-06.
 No special actions if energy rises.
 Integral accuracy reduced to 1.0D-05 until final iterations.
 Initial convergence to 1.0D-05 achieved.  Increase integral accuracy.
 SCF Done:  E(RPBE1PBE) =  -34.4138481673     A.U. after   11 cycles
            NFock= 11  Conv=0.29D-08     -V/T= 2.2657
   1 Symmetry operations used in ECPInt.
 ECPInt:  NShTT=     171 NPrTT=     619 LenC2=     172 LenP2D=     566.
 LDataN:  DoStor=T MaxTD1= 5 Len=  102
 Calling FoFJK, ICntrl=      2127 FMM=F ISym2X=0 I1Cent= 0 IOpClX= 0 NMat=1 NMatS=1 NMatT=0.
 ***** Axes restored to original set *****
 -------------------------------------------------------------------
 Center     Atomic                   Forces (Hartrees/Bohr)
 Number     Number              X              Y              Z
 -------------------------------------------------------------------
      1        8          -0.002970380   -0.002562233   -0.002196393
      2        1           0.002269268    0.003045660    0.001495599
      3        1           0.001152146   -0.000926157    0.000458984
      4        8          -0.000381907   -0.000697073    0.000718102
      5        1          -0.000011448    0.000933373    0.000143381
      6        1          -0.000057679    0.000206429   -0.000619674
 -------------------------------------------------------------------
 Cartesian Forces:  Max     0.003045660 RMS     0.001522788

 GradGradGradGradGradGradGradGradGradGradGradGradGradGradGradGradGradGrad
 Berny optimization.
 Search for a local minimum.
 Step number   4 out of a maximum of  100
 All quantities printed in internal units (Hartrees-Bohrs-Radians)
 Update second derivatives using D2CorN and points    1    4    3
 The second derivative matrix:
                          X1        Y1        Z1        X2        Y2
           X1           0.43297
           Y1           0.00283   0.73713
           Z1           0.11867   0.07576   0.04774
           X2          -0.23553  -0.23393  -0.09020   0.20749
           Y2          -0.19329  -0.33051  -0.08989   0.21743   0.34375
           Z2          -0.08579  -0.09762  -0.03832   0.07961   0.09679
           X3          -0.19846   0.23194  -0.03176   0.02945  -0.02259
           Y3           0.19328  -0.39933   0.01467   0.01837  -0.01492
           Z3          -0.03395   0.02155  -0.00991   0.01136  -0.00602
           X4          -0.00275  -0.00336   0.00445  -0.00139   0.00026
           Y4          -0.00004   0.00618  -0.00175   0.00346   0.00078
           Z4           0.00050   0.00137  -0.00247   0.00046   0.00031
           X5           0.00153   0.00162  -0.00442   0.00152   0.00054
           Y5          -0.00333  -0.01311   0.00089  -0.00474   0.00137
           Z5           0.00290  -0.00006   0.00321  -0.00244  -0.00282
           X6           0.00224   0.00090   0.00326  -0.00154  -0.00235
           Y6           0.00056  -0.00036   0.00032  -0.00059  -0.00047
           Z6          -0.00233  -0.00100  -0.00025   0.00122   0.00163
                          Z2        X3        Y3        Z3        X4
           Z2           0.03449
           X3           0.00830   0.16987
           Y3           0.00035  -0.21330   0.41439
           Z3           0.00414   0.02383  -0.01559   0.00580
           X4          -0.00291   0.00203  -0.00068  -0.00204   0.63719
           Y4           0.00098  -0.00214  -0.00188   0.00052  -0.01078
           Z4           0.00161   0.00017  -0.00077   0.00111   0.11944
           X5           0.00290  -0.00124   0.00054   0.00187  -0.49821
           Y5          -0.00031   0.00617   0.00124  -0.00043  -0.02612
           Z5          -0.00203  -0.00145   0.00244  -0.00090   0.07171
           X6          -0.00211  -0.00166   0.00179  -0.00105  -0.13686
           Y6          -0.00019  -0.00008   0.00050  -0.00004   0.04068
           Z6           0.00012   0.00091  -0.00111  -0.00024  -0.19065
                          Y4        Z4        X5        Y5        Z5
           Y4           0.03146
           Z4          -0.11393   0.50757
           X5          -0.02038   0.02789   0.50064
           Y5          -0.01433   0.01389   0.01872   0.02291
           Z5           0.01753  -0.06587  -0.03023  -0.01094   0.04561
           X6           0.02989  -0.14845  -0.00425   0.00930  -0.04050
           Y6          -0.02221   0.09913  -0.00105   0.00192  -0.00615
           Z6           0.09665  -0.44195   0.00200  -0.00310   0.01998
                          X6        Y6        Z6
           X6           0.14206
           Y6          -0.03952   0.02063
           Z6           0.18885  -0.09308   0.42234
 ITU=  0  0 -1  0
 Energy rises -- skip Quadratic search.
 Quartic linear search produced a step of -0.62726.
 TrRot=  0.000000  0.000000  0.000000  0.000000  0.000000  0.000000
 Variable       Old X    -DE/DX   Delta X   Delta X   Delta X     New X
                                 (Linear)    (Quad)   (Total)
    X1       -2.44152  -0.00297   0.01849   0.00000   0.01849  -2.42303
    Y1       -0.00484  -0.00256  -0.01158   0.00000  -0.01158  -0.01641
    Z1        0.16985  -0.00220  -0.04647   0.00000  -0.04647   0.12337
    X2       -3.43679   0.00227  -0.02269   0.00000  -0.02269  -3.45947
    Y2       -1.43948   0.00305  -0.00388   0.00000  -0.00388  -1.44336
    Z2       -0.40677   0.00150   0.03167   0.00000   0.03167  -0.37510
    X3       -3.35018   0.00115   0.02300   0.00000   0.02300  -3.32719
    Y3        1.57394  -0.00093  -0.00500   0.00000  -0.00500   1.56895
    Z3       -0.03960   0.00046   0.02460   0.00000   0.02460  -0.01500
    X4        2.70120  -0.00038   0.00619   0.00000   0.00619   2.70739
    Y4        0.01840  -0.00070   0.00869   0.00000   0.00869   0.02709
    Z4       -0.21581   0.00072   0.00459   0.00000   0.00459  -0.21122
    X5        0.85076  -0.00001   0.00245   0.00000   0.00245   0.85321
    Y5       -0.05601   0.00093   0.01730   0.00000   0.01730  -0.03871
    Z5       -0.02987   0.00014  -0.03289   0.00000  -0.03289  -0.06276
    X6        3.55663  -0.00006  -0.02744   0.00000  -0.02744   3.52918
    Y6       -0.29531   0.00021  -0.00554   0.00000  -0.00554  -0.30085
    Z6        1.37189  -0.00062   0.01850   0.00000   0.01850   1.39039
         Item               Value     Threshold  Converged?
 Maximum Force            0.003046     0.000450     NO 
 RMS     Force            0.001523     0.000300     NO 
 Maximum Displacement     0.046472     0.001800     NO 
 RMS     Displacement     0.021049     0.001200     NO 
 Predicted change in Energy=-2.193927D-05
 GradGradGradGradGradGradGradGradGradGradGradGradGradGradGradGradGradGrad

                          Input orientation:                          
 ---------------------------------------------------------------------
 Center     Atomic      Atomic             Coordinates (Angstroms)
 Number     Number       Type             X           Y           Z
 ---------------------------------------------------------------------
      1          8           0       -1.282212   -0.008686    0.065287
      2          1           0       -1.830674   -0.763793   -0.198493
      3          1           0       -1.760672    0.830251   -0.007938
      4          8           0        1.432688    0.014335   -0.111771
      5          1           0        0.451499   -0.020483   -0.033210
      6          1           0        1.867564   -0.159201    0.735763
 ---------------------------------------------------------------------
                    Distance matrix (angstroms):
                    1          2          3          4          5
     1  O    0.000000
     2  H    0.969834   0.000000
     3  H    0.968556   1.606919   0.000000
     4  O    2.720765   3.355970   3.297582   0.000000
     5  H    1.736546   2.405855   2.370250   0.984946   0.000000
     6  H    3.223861   3.862037   3.833563   0.968269   1.617344
                    6
     6  H    0.000000
 Stoichiometry    H4O2
 Framework group  C1[X(H4O2)]
 Deg. of freedom    12
 Full point group                 C1      NOp   1
 Largest Abelian subgroup         C1      NOp   1
 Largest concise Abelian subgroup C1      NOp   1
                         Standard orientation:                         
 ---------------------------------------------------------------------
 Center     Atomic      Atomic             Coordinates (Angstroms)
 Number     Number       Type             X           Y           Z
 ---------------------------------------------------------------------
      1          8           0       -1.279071   -0.008203    0.052223
      2          1           0       -1.823775   -0.769839   -0.200333
      3          1           0       -1.759675    0.827706   -0.039307
      4          8           0        1.436677    0.020045   -0.110500
      5          1           0        0.455181   -0.016384   -0.036626
      6          1           0        1.867424   -0.136222    0.742485
 ---------------------------------------------------------------------
 Rotational constants (GHZ):    240.8104432      7.2024002      7.1487073
 Standard basis: SDDAll (6D, 10F)
 There are    30 symmetry adapted cartesian basis functions of A   symmetry.
 There are    30 symmetry adapted basis functions of A   symmetry.
    30 basis functions,    54 primitive gaussians,    30 cartesian basis functions
     8 alpha electrons        8 beta electrons
       nuclear repulsion energy        26.1534658701 Hartrees.
 NAtoms=    6 NActive=    6 NUniq=    6 SFac= 1.00D+00 NAtFMM=   60 NAOKFM=F Big=F
 Integral buffers will be    131072 words long.
 Raffenetti 2 integral format.
 Two-electron integral symmetry is turned on.
 One-electron integrals computed using PRISM.
   1 Symmetry operations used in ECPInt.
 ECPInt:  NShTT=     171 NPrTT=     619 LenC2=     172 LenP2D=     564.
 LDataN:  DoStor=T MaxTD1= 4 Len=   56
 NBasis=    30 RedAO= T EigKep=  3.47D-02  NBF=    30
 NBsUse=    30 1.00D-06 EigRej= -1.00D+00 NBFU=    30
 Lowest energy guess from the checkpoint file:  "/tmp/Gau-5843.chk"
 B after Tr=     0.000000    0.000000    0.000000
         Rot=    0.999982    0.006001   -0.000054   -0.000380 Ang=   0.69 deg.
 B after Tr=     0.000000    0.000000    0.000000
         Rot=    0.999941   -0.010819    0.000079    0.000635 Ang=  -1.24 deg.
 Keep R1 ints in memory in canonical form, NReq=1237769.
 Requested convergence on RMS density matrix=1.00D-08 within 512 cycles.
 Requested convergence on MAX density matrix=1.00D-06.
 Requested convergence on             energy=1.00D-06.
 No special actions if energy rises.
 Integral accuracy reduced to 1.0D-05 until final iterations.
 Initial convergence to 1.0D-05 achieved.  Increase integral accuracy.
 SCF Done:  E(RPBE1PBE) =  -34.4138933317     A.U. after    8 cycles
            NFock=  8  Conv=0.33D-08     -V/T= 2.2650
   1 Symmetry operations used in ECPInt.
 ECPInt:  NShTT=     171 NPrTT=     619 LenC2=     172 LenP2D=     564.
 LDataN:  DoStor=T MaxTD1= 5 Len=  102
 Calling FoFJK, ICntrl=      2127 FMM=F ISym2X=0 I1Cent= 0 IOpClX= 0 NMat=1 NMatS=1 NMatT=0.
 ***** Axes restored to original set *****
 -------------------------------------------------------------------
 Center     Atomic                   Forces (Hartrees/Bohr)
 Number     Number              X              Y              Z
 -------------------------------------------------------------------
      1        8          -0.000712677   -0.001089561   -0.000457652
      2        1           0.000837572    0.001041021    0.000319917
      3        1           0.000063752    0.000008057    0.000037863
      4        8          -0.000286870   -0.000292028    0.000343224
      5        1          -0.000012033    0.000210705    0.000047359
      6        1           0.000110256    0.000121806   -0.000290710
 -------------------------------------------------------------------
 Cartesian Forces:  Max     0.001089561 RMS     0.000485417

 GradGradGradGradGradGradGradGradGradGradGradGradGradGradGradGradGradGrad
 Berny optimization.
 Search for a local minimum.
 Step number   5 out of a maximum of  100
 All quantities printed in internal units (Hartrees-Bohrs-Radians)
 Update second derivatives using D2CorN and points    2    1    3    5
 The second derivative matrix:
                          X1        Y1        Z1        X2        Y2
           X1           0.43255
           Y1           0.00079   0.73866
           Z1           0.11899   0.07591   0.04779
           X2          -0.23730  -0.23214  -0.09116   0.20910
           Y2          -0.19342  -0.32980  -0.09053   0.21808   0.34394
           Z2          -0.08602  -0.09769  -0.03813   0.08033   0.09722
           X3          -0.19645   0.23161  -0.03124   0.02939  -0.02294
           Y3           0.19258  -0.40022   0.01470   0.01735  -0.01500
           Z3          -0.03398   0.02135  -0.00961   0.01175  -0.00577
           X4          -0.00352  -0.00751   0.00755  -0.00538  -0.00061
           Y4          -0.00242   0.00734  -0.00181   0.00531   0.00178
           Z4           0.00034   0.00274  -0.00343   0.00200   0.00078
           X5           0.00274   0.00574  -0.00638   0.00579   0.00131
           Y5           0.00175  -0.01569   0.00154  -0.00791  -0.00036
           Z5           0.00274  -0.00033   0.00284  -0.00353  -0.00322
           X6           0.00199   0.00152   0.00224  -0.00159  -0.00242
           Y6           0.00073  -0.00029   0.00019  -0.00069  -0.00056
           Z6          -0.00207  -0.00198   0.00055   0.00062   0.00152
                          Z2        X3        Y3        Z3        X4
           Z2           0.03420
           X3           0.00782   0.16838
           Y3           0.00039  -0.21182   0.41365
           Z3           0.00382   0.02346  -0.01545   0.00550
           X4          -0.00488   0.00556  -0.00150  -0.00307   0.63938
           Y4           0.00096  -0.00216  -0.00307   0.00032  -0.01673
           Z4           0.00219  -0.00090  -0.00071   0.00137   0.11756
           X5           0.00405  -0.00568   0.00201   0.00228  -0.49902
           Y5          -0.00082   0.00540   0.00407  -0.00050  -0.01485
           Z5          -0.00160  -0.00026   0.00198  -0.00045   0.07293
           X6          -0.00130  -0.00120   0.00137  -0.00043  -0.13702
           Y6          -0.00007  -0.00009   0.00057   0.00006   0.04120
           Z6          -0.00048   0.00113  -0.00091  -0.00064  -0.19007
                          Y4        Z4        X5        Y5        Z5
           Y4           0.03233
           Z4          -0.11204   0.50852
           X5          -0.01476   0.02920   0.49960
           Y5          -0.01630   0.01023   0.00714   0.02649
           Z5           0.01716  -0.06627  -0.03035  -0.00934   0.04483
           X6           0.03076  -0.14819  -0.00343   0.00847  -0.04153
           Y6          -0.02208   0.09901  -0.00145   0.00179  -0.00625
           Z6           0.09541  -0.44238   0.00120  -0.00111   0.02064
                          X6        Y6        Z6
           X6           0.14125
           Y6          -0.03970   0.02058
           Z6           0.18921  -0.09293   0.42231
 ITU=  0  0  0 -1  0
     Eigenvalues ---   -0.00359  -0.00001   0.00000   0.00000   0.00849
     Eigenvalues ---    0.03857   0.15209   0.16003   0.80601   0.87041
     Eigenvalues ---    1.09770   1.12334
 RFO step:  Lambda=-3.62225349D-03 EMin=-3.59173889D-03
 I=     1 Eig=   -3.59D-03 Dot1=  1.25D-04
 I=     1 Stepn=  3.75D-01 RXN=   3.75D-01 EDone=F
 Mixed    1 eigenvectors in step.  Raw Step.Grad=  1.25D-04.
 RFO eigenvector is Hessian eigenvector with negative curvature.
 Taking step of  3.75D-01 in eigenvector direction(s).  Step.Grad= -1.34D-05.
 Quartic linear search produced a step of -0.00932.
 Maximum step size (   0.150) exceeded in Quadratic search.
    -- Step size scaled by   0.400
 TrRot= -0.004829 -0.003279 -0.005196 -1.463103 -0.003503  1.460703
 Variable       Old X    -DE/DX   Delta X   Delta X   Delta X     New X
                                 (Linear)    (Quad)   (Total)
    X1       -2.42303  -0.00071   0.00010   0.01595   0.01117  -2.41186
    Y1       -0.01641  -0.00109  -0.00006   0.01012   0.01292  -0.00349
    Z1        0.12337  -0.00046  -0.00026  -0.01850  -0.02485   0.09852
    X2       -3.45947   0.00084  -0.00013   0.03609   0.02782  -3.43166
    Y2       -1.44336   0.00104  -0.00002  -0.00366  -0.00010  -1.44346
    Z2       -0.37510   0.00032   0.00018  -0.01607  -0.01737  -0.39247
    X3       -3.32719   0.00006   0.00013  -0.01089  -0.01182  -3.33901
    Y3        1.56895   0.00001  -0.00003  -0.00524  -0.00060   1.56834
    Z3       -0.01500   0.00004   0.00014   0.00042  -0.01137  -0.02637
    X4        2.70739  -0.00029   0.00003  -0.03648  -0.04118   2.66621
    Y4        0.02709  -0.00029   0.00005  -0.01812  -0.02850  -0.00141
    Z4       -0.21122   0.00034   0.00003  -0.00311  -0.00728  -0.21850
    X5        0.85321  -0.00001   0.00001  -0.03033  -0.03522   0.81799
    Y5       -0.03871   0.00021   0.00010   0.01426   0.00927  -0.02944
    Z5       -0.06276   0.00005  -0.00018   0.11066   0.10568   0.04292
    X6        3.52918   0.00011  -0.00015   0.05541   0.04923   3.57841
    Y6       -0.30085   0.00012  -0.00003   0.01423   0.00702  -0.29383
    Z6        1.39039  -0.00029   0.00010  -0.04208  -0.04480   1.34559
         Item               Value     Threshold  Converged?
 Maximum Force            0.001090     0.000450     NO 
 RMS     Force            0.000485     0.000300     NO 
 Maximum Displacement     0.105683     0.001800     NO 
 RMS     Displacement     0.034793     0.001200     NO 
 Predicted change in Energy=-9.065571D-05
 GradGradGradGradGradGradGradGradGradGradGradGradGradGradGradGradGradGrad

                          Input orientation:                          
 ---------------------------------------------------------------------
 Center     Atomic      Atomic             Coordinates (Angstroms)
 Number     Number       Type             X           Y           Z
 ---------------------------------------------------------------------
      1          8           0       -1.276300   -0.001849    0.052134
      2          1           0       -1.815954   -0.763846   -0.207687
      3          1           0       -1.766926    0.829931   -0.013954
      4          8           0        1.410899   -0.000748   -0.115626
      5          1           0        0.432861   -0.015579    0.022715
      6          1           0        1.893614   -0.155486    0.712053
 ---------------------------------------------------------------------
                    Distance matrix (angstroms):
                    1          2          3          4          5
     1  O    0.000000
     2  H    0.969212   0.000000
     3  H    0.967956   1.606257   0.000000
     4  O    2.692431   3.317134   3.286174   0.000000
     5  H    1.709469   2.381209   2.356967   0.987885   0.000000
     6  H    3.241520   3.870002   3.859752   0.970572   1.621284
                    6
     6  H    0.000000
 Stoichiometry    H4O2
 Framework group  C1[X(H4O2)]
 Deg. of freedom    12
 Full point group                 C1      NOp   1
 Largest Abelian subgroup         C1      NOp   1
 Largest concise Abelian subgroup C1      NOp   1
                         Standard orientation:                         
 ---------------------------------------------------------------------
 Center     Atomic      Atomic             Coordinates (Angstroms)
 Number     Number       Type             X           Y           Z
 ---------------------------------------------------------------------
      1          8           0       -1.267404   -0.005159    0.049690
      2          1           0       -1.799034   -0.786063   -0.166947
      3          1           0       -1.766029    0.816586   -0.064536
      4          8           0        1.419988    0.012976   -0.113945
      5          1           0        0.441865   -0.003616    0.023593
      6          1           0        1.902525   -0.089437    0.721926
 ---------------------------------------------------------------------
 Rotational constants (GHZ):    245.6802100      7.3294202      7.2710322
 Standard basis: SDDAll (6D, 10F)
 There are    30 symmetry adapted cartesian basis functions of A   symmetry.
 There are    30 symmetry adapted basis functions of A   symmetry.
    30 basis functions,    54 primitive gaussians,    30 cartesian basis functions
     8 alpha electrons        8 beta electrons
       nuclear repulsion energy        26.2535820812 Hartrees.
 NAtoms=    6 NActive=    6 NUniq=    6 SFac= 1.00D+00 NAtFMM=   60 NAOKFM=F Big=F
 Integral buffers will be    131072 words long.
 Raffenetti 2 integral format.
 Two-electron integral symmetry is turned on.
 One-electron integrals computed using PRISM.
   1 Symmetry operations used in ECPInt.
 ECPInt:  NShTT=     171 NPrTT=     619 LenC2=     172 LenP2D=     566.
 LDataN:  DoStor=T MaxTD1= 4 Len=   56
 NBasis=    30 RedAO= T EigKep=  3.38D-02  NBF=    30
 NBsUse=    30 1.00D-06 EigRej= -1.00D+00 NBFU=    30
 Initial guess from the checkpoint file:  "/tmp/Gau-5843.chk"
 B after Tr=     0.000000    0.000000    0.000000
         Rot=    0.999740    0.022774   -0.001030   -0.000764 Ang=   2.61 deg.
 ExpMin= 7.02D-02 ExpMax= 4.71D+01 ExpMxC= 4.71D+01 IAcc=2 IRadAn=         4 AccDes= 0.00D+00
 Harris functional with IExCor= 1009 and IRadAn=       4 diagonalized for initial guess.
 HarFok:  IExCor= 1009 AccDes= 0.00D+00 IRadAn=         4 IDoV= 1 UseB2=F ITyADJ=14
 ICtDFT=  3500011 ScaDFX=  1.000000  1.000000  1.000000  1.000000
 FoFCou: FMM=F IPFlag=           0 FMFlag=      100000 FMFlg1=           0
         NFxFlg=           0 DoJE=T BraDBF=F KetDBF=T FulRan=T
         wScrn=  0.000000 ICntrl=     500 IOpCl=  0 I1Cent=   200000004 NGrid=           0
         NMat0=    1 NMatS0=      1 NMatT0=    0 NMatD0=    1 NMtDS0=    0 NMtDT0=    0
 Petite list used in FoFCou.
 Keep R1 ints in memory in canonical form, NReq=1237769.
 Requested convergence on RMS density matrix=1.00D-08 within 512 cycles.
 Requested convergence on MAX density matrix=1.00D-06.
 Requested convergence on             energy=1.00D-06.
 No special actions if energy rises.
 Integral accuracy reduced to 1.0D-05 until final iterations.
 Initial convergence to 1.0D-05 achieved.  Increase integral accuracy.
 SCF Done:  E(RPBE1PBE) =  -34.4138019473     A.U. after   11 cycles
            NFock= 11  Conv=0.24D-08     -V/T= 2.2652
   1 Symmetry operations used in ECPInt.
 ECPInt:  NShTT=     171 NPrTT=     619 LenC2=     172 LenP2D=     566.
 LDataN:  DoStor=T MaxTD1= 5 Len=  102
 Calling FoFJK, ICntrl=      2127 FMM=F ISym2X=0 I1Cent= 0 IOpClX= 0 NMat=1 NMatS=1 NMatT=0.
 ***** Axes restored to original set *****
 -------------------------------------------------------------------
 Center     Atomic                   Forces (Hartrees/Bohr)
 Number     Number              X              Y              Z
 -------------------------------------------------------------------
      1        8          -0.001529406   -0.000946043    0.000963668
      2        1           0.000854099    0.000642406   -0.000035334
      3        1          -0.000015758    0.000400440   -0.000231867
      4        8          -0.000488891   -0.000576318    0.003837394
      5        1           0.001647572    0.000037823   -0.002359265
      6        1          -0.000467615    0.000441693   -0.002174595
 -------------------------------------------------------------------
 Cartesian Forces:  Max     0.003837394 RMS     0.001379250

 GradGradGradGradGradGradGradGradGradGradGradGradGradGradGradGradGradGrad
 Berny optimization.
 Search for a local minimum.
 Step number   6 out of a maximum of  100
 All quantities printed in internal units (Hartrees-Bohrs-Radians)
 Update second derivatives using D2CorN and points    2    1    3    6    5

 The second derivative matrix:
                          X1        Y1        Z1        X2        Y2
           X1           0.43274
           Y1          -0.00007   0.73917
           Z1           0.11828   0.07557   0.04980
           X2          -0.23776  -0.23155  -0.09246   0.20996
           Y2          -0.19343  -0.32934  -0.09099   0.21869   0.34403
           Z2          -0.08638  -0.09748  -0.03784   0.08064   0.09714
           X3          -0.19551   0.23174  -0.03082   0.02950  -0.02322
           Y3           0.19207  -0.40087   0.01504   0.01653  -0.01506
           Z3          -0.03412   0.02143  -0.00939   0.01191  -0.00584
           X4          -0.00446  -0.00930   0.00996  -0.00753  -0.00153
           Y4          -0.00423   0.00795  -0.00104   0.00582   0.00182
           Z4          -0.00088   0.00236  -0.00151   0.00037   0.00091
           X5           0.00211   0.00750  -0.00491   0.00667   0.00132
           Y5           0.00479  -0.01653   0.00134  -0.00866  -0.00094
           Z5           0.00540  -0.00022  -0.00236  -0.00165  -0.00213
           X6           0.00289   0.00168  -0.00005  -0.00084  -0.00184
           Y6           0.00087  -0.00038   0.00009  -0.00083  -0.00051
           Z6          -0.00230  -0.00166   0.00130   0.00118   0.00092
                          Z2        X3        Y3        Z3        X4
           Z2           0.03399
           X3           0.00771   0.16738
           Y3           0.00046  -0.21087   0.41323
           Z3           0.00367   0.02335  -0.01535   0.00539
           X4          -0.00590   0.00740  -0.00160  -0.00357   0.64025
           Y4           0.00079  -0.00170  -0.00365   0.00017  -0.01968
           Z4           0.00379  -0.00037  -0.00064   0.00237   0.12005
           X5           0.00505  -0.00747   0.00307   0.00275  -0.49775
           Y5          -0.00101   0.00412   0.00578  -0.00058  -0.00957
           Z5          -0.00200  -0.00074   0.00101  -0.00068   0.07086
           X6          -0.00113  -0.00130   0.00080  -0.00032  -0.13790
           Y6           0.00010  -0.00008   0.00057   0.00017   0.04167
           Z6          -0.00162   0.00087  -0.00051  -0.00136  -0.19140
                          Y4        Z4        X5        Y5        Z5
           Y4           0.03229
           Z4          -0.10892   0.51012
           X5          -0.01078   0.03306   0.50216
           Y5          -0.01658   0.00786   0.00062   0.02661
           Z5           0.01531  -0.07557  -0.03727  -0.00753   0.05861
           X6           0.03056  -0.15224  -0.00572   0.00869  -0.03661
           Y6          -0.02183   0.09843  -0.00173   0.00166  -0.00644
           Z6           0.09368  -0.43920   0.00132  -0.00008   0.02200
                          X6        Y6        Z6
           X6           0.14288
           Y6          -0.03990   0.02049
           Z6           0.19035  -0.09235   0.41888
 ITU=  0  0  0  0 -1  0
 Energy rises -- skip Quadratic search.
 Quartic linear search produced a step of -0.80944.
 TrRot=  0.000000  0.000000  0.000000  0.000000  0.000000  0.000000
 Variable       Old X    -DE/DX   Delta X   Delta X   Delta X     New X
                                 (Linear)    (Quad)   (Total)
    X1       -2.41186  -0.00153  -0.00904   0.00000  -0.00904  -2.42090
    Y1       -0.00349  -0.00095  -0.01046   0.00000  -0.01046  -0.01395
    Z1        0.09852   0.00096   0.02012   0.00000   0.02012   0.11864
    X2       -3.43166   0.00085  -0.02252   0.00000  -0.02252  -3.45417
    Y2       -1.44346   0.00064   0.00008   0.00000   0.00008  -1.44338
    Z2       -0.39247  -0.00004   0.01406   0.00000   0.01406  -0.37841
    X3       -3.33901  -0.00002   0.00957   0.00000   0.00957  -3.32944
    Y3        1.56834   0.00040   0.00049   0.00000   0.00049   1.56883
    Z3       -0.02637  -0.00023   0.00920   0.00000   0.00920  -0.01717
    X4        2.66621  -0.00049   0.03333   0.00000   0.03333   2.69954
    Y4       -0.00141  -0.00058   0.02307   0.00000   0.02307   0.02166
    Z4       -0.21850   0.00384   0.00590   0.00000   0.00590  -0.21261
    X5        0.81799   0.00165   0.02851   0.00000   0.02851   0.84650
    Y5       -0.02944   0.00004  -0.00750   0.00000  -0.00750  -0.03694
    Z5        0.04292  -0.00236  -0.08554   0.00000  -0.08554  -0.04262
    X6        3.57841  -0.00047  -0.03985   0.00000  -0.03985   3.53856
    Y6       -0.29383   0.00044  -0.00568   0.00000  -0.00568  -0.29951
    Z6        1.34559  -0.00217   0.03627   0.00000   0.03627   1.38185
         Item               Value     Threshold  Converged?
 Maximum Force            0.003837     0.000450     NO 
 RMS     Force            0.001379     0.000300     NO 
 Maximum Displacement     0.085544     0.001800     NO 
 RMS     Displacement     0.028163     0.001200     NO 
 Predicted change in Energy=-1.134300D-05
 GradGradGradGradGradGradGradGradGradGradGradGradGradGradGradGradGradGrad

                          Input orientation:                          
 ---------------------------------------------------------------------
 Center     Atomic      Atomic             Coordinates (Angstroms)
 Number     Number       Type             X           Y           Z
 ---------------------------------------------------------------------
      1          8           0       -1.281086   -0.007383    0.062780
      2          1           0       -1.827869   -0.763803   -0.200245
      3          1           0       -1.761864    0.830190   -0.009085
      4          8           0        1.428536    0.011461   -0.112506
      5          1           0        0.447947   -0.019548   -0.022553
      6          1           0        1.872528   -0.158493    0.731245
 ---------------------------------------------------------------------
                    Distance matrix (angstroms):
                    1          2          3          4          5
     1  O    0.000000
     2  H    0.969704   0.000000
     3  H    0.968422   1.606771   0.000000
     4  O    2.715351   3.348568   3.295401   0.000000
     5  H    1.731180   2.401006   2.367594   0.985195   0.000000
     6  H    3.227221   3.863549   3.838539   0.968467   1.617698
                    6
     6  H    0.000000
 Stoichiometry    H4O2
 Framework group  C1[X(H4O2)]
 Deg. of freedom    12
 Full point group                 C1      NOp   1
 Largest Abelian subgroup         C1      NOp   1
 Largest concise Abelian subgroup C1      NOp   1
                         Standard orientation:                         
 ---------------------------------------------------------------------
 Center     Atomic      Atomic             Coordinates (Angstroms)
 Number     Number       Type             X           Y           Z
 ---------------------------------------------------------------------
      1          8           0       -1.276840   -0.007606    0.051763
      2          1           0       -1.819068   -0.773084   -0.193915
      3          1           0       -1.760888    0.825648   -0.044293
      4          8           0        1.433489    0.018711   -0.111201
      5          1           0        0.452621   -0.014300   -0.025083
      6          1           0        1.874139   -0.127107    0.738795
 ---------------------------------------------------------------------
 Rotational constants (GHZ):    241.8034929      7.2265083      7.1719185
 Standard basis: SDDAll (6D, 10F)
 There are    30 symmetry adapted cartesian basis functions of A   symmetry.
 There are    30 symmetry adapted basis functions of A   symmetry.
    30 basis functions,    54 primitive gaussians,    30 cartesian basis functions
     8 alpha electrons        8 beta electrons
       nuclear repulsion energy        26.1746280488 Hartrees.
 NAtoms=    6 NActive=    6 NUniq=    6 SFac= 1.00D+00 NAtFMM=   60 NAOKFM=F Big=F
 Integral buffers will be    131072 words long.
 Raffenetti 2 integral format.
 Two-electron integral symmetry is turned on.
 One-electron integrals computed using PRISM.
   1 Symmetry operations used in ECPInt.
 ECPInt:  NShTT=     171 NPrTT=     619 LenC2=     172 LenP2D=     566.
 LDataN:  DoStor=T MaxTD1= 4 Len=   56
 NBasis=    30 RedAO= T EigKep=  3.44D-02  NBF=    30
 NBsUse=    30 1.00D-06 EigRej= -1.00D+00 NBFU=    30
 Lowest energy guess from the checkpoint file:  "/tmp/Gau-5843.chk"
 B after Tr=     0.000000    0.000000    0.000000
         Rot=    0.999990    0.004401   -0.000196   -0.000149 Ang=   0.51 deg.
 B after Tr=     0.000000    0.000000    0.000000
         Rot=    0.999831   -0.018372    0.000834    0.000615 Ang=  -2.11 deg.
 Keep R1 ints in memory in canonical form, NReq=1237769.
 Requested convergence on RMS density matrix=1.00D-08 within 512 cycles.
 Requested convergence on MAX density matrix=1.00D-06.
[...]
 ITU=  0  0  0 -1  1  0  0  0  0  0 -1  0  0  0  0  0 -1  0
     Eigenvalues ---    0.00107   0.00154   0.00344   0.01285   0.02292
     Eigenvalues ---    0.03842   0.15037   0.16154   0.80694   0.87217
     Eigenvalues ---    1.09174   1.12098
 RFO step:  Lambda=-1.12207951D-07 EMin= 1.07456438D-03
 Skip linear search -- no minimum in search direction.
 TrRot= -0.000138 -0.000570  0.000054 -0.000111  0.000074 -0.000111
 MatCor failed.
 Variable       Old X    -DE/DX   Delta X   Delta X   Delta X     New X
                                 (Linear)    (Quad)   (Total)
    X1       -2.42702  -0.00006   0.00000  -0.00019  -0.00032  -2.42733
    Y1        0.00138  -0.00007   0.00000   0.00039   0.00036   0.00174
    Z1        0.14087  -0.00002   0.00000   0.00069   0.00092   0.14179
    X2       -3.41409   0.00006   0.00000   0.00193   0.00145  -3.41265
    Y2       -1.43848   0.00006   0.00000   0.00066   0.00085  -1.43763
    Z2       -0.40872   0.00002   0.00000  -0.00343  -0.00312  -0.41184
    X3       -3.35659   0.00000   0.00000  -0.00093  -0.00072  -3.35731
    Y3        1.57025   0.00002   0.00000   0.00005   0.00023   1.57048
    Z3       -0.01233   0.00000   0.00000   0.00174   0.00204  -0.01029
    X4        2.68912   0.00008   0.00000  -0.00037  -0.00053   2.68859
    Y4       -0.03291  -0.00002   0.00000  -0.00242  -0.00359  -0.03651
    Z4       -0.22084   0.00008   0.00000  -0.00035  -0.00050  -0.22134
    X5        0.83826  -0.00004   0.00000  -0.00029  -0.00044   0.83782
    Y5       -0.03159   0.00000   0.00000  -0.00044  -0.00119  -0.03279
    Z5       -0.02436   0.00000   0.00000   0.00086   0.00085  -0.02351
    X6        3.55041  -0.00004   0.00000   0.00065   0.00056   3.55097
    Y6       -0.27193   0.00002   0.00000   0.00471   0.00334  -0.26858
    Z6        1.37507  -0.00007   0.00000   0.00002  -0.00019   1.37488
         Item               Value     Threshold  Converged?
 Maximum Force            0.000079     0.000450     YES
 RMS     Force            0.000046     0.000300     YES
 Maximum Displacement     0.003593     0.001800     NO 
 RMS     Displacement     0.001593     0.001200     NO 
 Predicted change in Energy=-5.960490D-08
 GradGradGradGradGradGradGradGradGradGradGradGradGradGradGradGradGradGrad

                          Input orientation:                          
 ---------------------------------------------------------------------
 Center     Atomic      Atomic             Coordinates (Angstroms)
 Number     Number       Type             X           Y           Z
 ---------------------------------------------------------------------
      1          8           0       -1.284490    0.000920    0.075033
      2          1           0       -1.805896   -0.760762   -0.217938
      3          1           0       -1.776612    0.831061   -0.005448
      4          8           0        1.422742   -0.019319   -0.117126
      5          1           0        0.443356   -0.017349   -0.012441
      6          1           0        1.879094   -0.142127    0.727555
 ---------------------------------------------------------------------
                    Distance matrix (angstroms):
                    1          2          3          4          5
     1  O    0.000000
     2  H    0.968429   0.000000
     3  H    0.968399   1.606210   0.000000
     4  O    2.714118   3.314212   3.312323   0.000000
     5  H    1.730155   2.377819   2.376575   0.984967   0.000000
     6  H    3.233343   3.854324   3.853385   0.967897   1.620033
                    6
     6  H    0.000000
 Stoichiometry    H4O2
 Framework group  C1[X(H4O2)]
 Deg. of freedom    12
 Full point group                 C1      NOp   1
 Largest Abelian subgroup         C1      NOp   1
 Largest concise Abelian subgroup C1      NOp   1
                         Standard orientation:                         
 ---------------------------------------------------------------------
 Center     Atomic      Atomic             Coordinates (Angstroms)
 Number     Number       Type             X           Y           Z
 ---------------------------------------------------------------------
      1          8           0       -1.277368   -0.000286    0.056632
      2          1           0       -1.784001   -0.802115   -0.138940
      3          1           0       -1.781922    0.804085   -0.133653
      4          8           0        1.431419    0.000647   -0.113401
      5          1           0        0.451248   -0.000459   -0.016324
      6          1           0        1.882268   -0.004399    0.743065
 ---------------------------------------------------------------------
 Rotational constants (GHZ):    241.1559928      7.2342746      7.1824085
 Standard basis: SDDAll (6D, 10F)
 There are    30 symmetry adapted cartesian basis functions of A   symmetry.
 There are    30 symmetry adapted basis functions of A   symmetry.
    30 basis functions,    54 primitive gaussians,    30 cartesian basis functions
     8 alpha electrons        8 beta electrons
       nuclear repulsion energy        26.1897529337 Hartrees.
 NAtoms=    6 NActive=    6 NUniq=    6 SFac= 1.00D+00 NAtFMM=   60 NAOKFM=F Big=F
 Integral buffers will be    131072 words long.
 Raffenetti 2 integral format.
 Two-electron integral symmetry is turned on.
 One-electron integrals computed using PRISM.
   1 Symmetry operations used in ECPInt.
 ECPInt:  NShTT=     171 NPrTT=     619 LenC2=     172 LenP2D=     566.
 LDataN:  DoStor=T MaxTD1= 4 Len=   56
 NBasis=    30 RedAO= T EigKep=  3.45D-02  NBF=    30
 NBsUse=    30 1.00D-06 EigRej= -1.00D+00 NBFU=    30
 Initial guess from the checkpoint file:  "/tmp/Gau-5843.chk"
 B after Tr=     0.000000    0.000000    0.000000
         Rot=    0.999988    0.004856   -0.000005   -0.000042 Ang=   0.56 deg.
 Keep R1 ints in memory in canonical form, NReq=1237769.
 Requested convergence on RMS density matrix=1.00D-08 within 512 cycles.
 Requested convergence on MAX density matrix=1.00D-06.
 Requested convergence on             energy=1.00D-06.
 No special actions if energy rises.
 SCF Done:  E(RPBE1PBE) =  -34.4139095953     A.U. after    7 cycles
            NFock=  7  Conv=0.37D-08     -V/T= 2.2648
   1 Symmetry operations used in ECPInt.
 ECPInt:  NShTT=     171 NPrTT=     619 LenC2=     172 LenP2D=     566.
 LDataN:  DoStor=T MaxTD1= 5 Len=  102
 Calling FoFJK, ICntrl=      2127 FMM=F ISym2X=0 I1Cent= 0 IOpClX= 0 NMat=1 NMatS=1 NMatT=0.
 ***** Axes restored to original set *****
 -------------------------------------------------------------------
 Center     Atomic                   Forces (Hartrees/Bohr)
 Number     Number              X              Y              Z
 -------------------------------------------------------------------
      1        8          -0.000011661   -0.000023276   -0.000007614
      2        1           0.000015810    0.000019893    0.000005569
      3        1          -0.000005570    0.000005840   -0.000000246
      4        8           0.000031914   -0.000007215    0.000033269
      5        1          -0.000015642   -0.000000095   -0.000003141
      6        1          -0.000014851    0.000004853   -0.000027838
 -------------------------------------------------------------------
 Cartesian Forces:  Max     0.000033269 RMS     0.000016547

 GradGradGradGradGradGradGradGradGradGradGradGradGradGradGradGradGradGrad
 Berny optimization.
 Search for a local minimum.
 Step number  19 out of a maximum of  100
 All quantities printed in internal units (Hartrees-Bohrs-Radians)
 Update second derivatives using D2CorN and points    2    1    4    3    6
                                                          5    8    7   10    9

                                                         12   11   13   15   14

                                                         16   17   18   19
 DE= -3.70D-08 DEPred=-5.96D-08 R= 6.20D-01
 Trust test= 6.20D-01 RLast= 6.76D-03 DXMaxT set to 6.31D-02
 The second derivative matrix:
                          X1        Y1        Z1        X2        Y2
           X1           0.43362
           Y1          -0.00323   0.74155
           Z1           0.13789   0.08226   0.07122
           X2          -0.22306  -0.22504  -0.10042   0.19800
           Y2          -0.18797  -0.32854  -0.10476   0.20770   0.34108
           Z2          -0.09544  -0.10736  -0.05061   0.08573   0.10587
           X3          -0.18925   0.22986  -0.03689   0.02582  -0.01887
           Y3           0.19220  -0.39863   0.02396   0.01800  -0.01819
           Z3          -0.03978   0.02599  -0.01461   0.01335  -0.00399
           X4          -0.01575  -0.01010   0.00716  -0.00789  -0.00366
           Y4          -0.00759  -0.00259  -0.00299   0.01240   0.01019
           Z4          -0.00046   0.00157   0.00341  -0.00425  -0.00265
           X5          -0.00283   0.00483  -0.00877   0.00620   0.00327
           Y5           0.00171  -0.02256  -0.00016  -0.00552   0.00239
           Z5           0.00394  -0.00142  -0.00903  -0.00327  -0.00023
           X6          -0.00273   0.00368   0.00102   0.00093  -0.00048
           Y6           0.00487   0.01076   0.00170  -0.00754  -0.00693
           Z6          -0.00616  -0.00103  -0.00037   0.00885   0.00577
                          Z2        X3        Y3        Z3        X4
           Z2           0.04282
           X3           0.00956   0.16493
           Y3          -0.00069  -0.21285   0.41385
           Z3           0.00554   0.02604  -0.02092   0.00772
           X4          -0.00340  -0.00004  -0.00114  -0.00559   0.65275
           Y4           0.00044  -0.00423  -0.00080   0.00138  -0.02718
           Z4           0.01654   0.00249  -0.00248  -0.00913   0.12358
           X5           0.00871  -0.00140   0.00453   0.00347  -0.49403
           Y5           0.00168   0.00409   0.00822  -0.00170   0.00325
           Z5          -0.00160  -0.00114   0.00000   0.00300   0.07433
           X6          -0.00515  -0.00006  -0.00075   0.00252  -0.13503
           Y6           0.00006   0.00200  -0.00445  -0.00076   0.03883
           Z6          -0.01270  -0.00005   0.00011   0.00748  -0.19609
                          Y4        Z4        X5        Y5        Z5
           Y4           0.02217
           Z4          -0.08395   0.51222
           X5          -0.00010   0.04017   0.50003
           Y5          -0.01474   0.01047  -0.00979   0.02590
           Z5           0.01219  -0.08580  -0.04099  -0.00635   0.06464
           X6           0.02670  -0.16153  -0.00797   0.00626  -0.03287
           Y6          -0.01424   0.07704  -0.00275   0.00078  -0.00419
           Z6           0.07293  -0.43723  -0.00257  -0.00394   0.02880
                          X6        Y6        Z6
           X6           0.14486
           Y6          -0.03541   0.01409
           Z6           0.19601  -0.07384   0.41402
 ITU=  0  0  0  0 -1  1  0  0  0  0  0 -1  0  0  0  0  0 -1  0
     Eigenvalues ---    0.00124   0.00209   0.00369   0.01282   0.02291
     Eigenvalues ---    0.03847   0.14994   0.16165   0.80592   0.87218
     Eigenvalues ---    1.09114   1.12035
 RFO step:  Lambda=-1.51290501D-08 EMin= 1.24191562D-03
 Skip linear search -- no minimum in search direction.
 TrRot=  0.000019 -0.000173 -0.000027 -0.000053  0.000011 -0.000053
 Variable       Old X    -DE/DX   Delta X   Delta X   Delta X     New X
                                 (Linear)    (Quad)   (Total)
    X1       -2.42733  -0.00001   0.00000   0.00000   0.00002  -2.42731
    Y1        0.00174  -0.00002   0.00000   0.00043   0.00052   0.00226
    Z1        0.14179  -0.00001   0.00000   0.00002   0.00002   0.14181
    X2       -3.41265   0.00002   0.00000   0.00117   0.00103  -3.41162
    Y2       -1.43763   0.00002   0.00000  -0.00004   0.00015  -1.43748
    Z2       -0.41184   0.00001   0.00000  -0.00070  -0.00069  -0.41254
    X3       -3.35731  -0.00001   0.00000  -0.00127  -0.00108  -3.35839
    Y3        1.57048   0.00001   0.00000  -0.00024  -0.00005   1.57043
    Z3       -0.01029   0.00000   0.00000   0.00084   0.00085  -0.00945
    X4        2.68859   0.00003   0.00000   0.00007   0.00008   2.68867
    Y4       -0.03651  -0.00001   0.00000  -0.00099  -0.00145  -0.03796
    Z4       -0.22134   0.00003   0.00000  -0.00012  -0.00018  -0.22151
    X5        0.83782  -0.00002   0.00000   0.00004   0.00005   0.83788
    Y5       -0.03279   0.00000   0.00000   0.00049   0.00023  -0.03255
    Z5       -0.02351   0.00000   0.00000  -0.00012  -0.00016  -0.02367
    X6        3.55097  -0.00001   0.00000  -0.00011  -0.00011   3.55087
    Y6       -0.26858   0.00000   0.00000   0.00115   0.00060  -0.26798
    Z6        1.37488  -0.00003   0.00000   0.00022   0.00016   1.37504
         Item               Value     Threshold  Converged?
 Maximum Force            0.000033     0.000450     YES
 RMS     Force            0.000017     0.000300     YES
 Maximum Displacement     0.001451     0.001800     YES
 RMS     Displacement     0.000594     0.001200     YES
 Predicted change in Energy=-8.760813D-09
 Optimization completed.
    -- Stationary point found.
 GradGradGradGradGradGradGradGradGradGradGradGradGradGradGradGradGradGrad

                          Input orientation:                          
 ---------------------------------------------------------------------
 Center     Atomic      Atomic             Coordinates (Angstroms)
 Number     Number       Type             X           Y           Z
 ---------------------------------------------------------------------
      1          8           0       -1.284490    0.000920    0.075033
      2          1           0       -1.805896   -0.760762   -0.217938
      3          1           0       -1.776612    0.831061   -0.005448
      4          8           0        1.422742   -0.019319   -0.117126
      5          1           0        0.443356   -0.017349   -0.012441
      6          1           0        1.879094   -0.142127    0.727555
 ---------------------------------------------------------------------
                    Distance matrix (angstroms):
                    1          2          3          4          5
     1  O    0.000000
     2  H    0.968429   0.000000
     3  H    0.968399   1.606210   0.000000
     4  O    2.714118   3.314212   3.312323   0.000000
     5  H    1.730155   2.377819   2.376575   0.984967   0.000000
     6  H    3.233343   3.854324   3.853385   0.967897   1.620033
                    6
     6  H    0.000000
 Stoichiometry    H4O2
 Framework group  C1[X(H4O2)]
 Deg. of freedom    12
 Full point group                 C1      NOp   1
 Largest Abelian subgroup         C1      NOp   1
 Largest concise Abelian subgroup C1      NOp   1
                         Standard orientation:                         
 ---------------------------------------------------------------------
 Center     Atomic      Atomic             Coordinates (Angstroms)
 Number     Number       Type             X           Y           Z
 ---------------------------------------------------------------------
      1          8           0       -1.277368   -0.000286    0.056632
      2          1           0       -1.784001   -0.802115   -0.138940
      3          1           0       -1.781922    0.804085   -0.133653
      4          8           0        1.431419    0.000647   -0.113401
      5          1           0        0.451248   -0.000459   -0.016324
      6          1           0        1.882268   -0.004399    0.743065
 ---------------------------------------------------------------------
 Rotational constants (GHZ):    241.1559928      7.2342746      7.1824085

 **********************************************************************

            Population analysis using the SCF density.

 **********************************************************************

 Orbital symmetries:
       Occupied  (A) (A) (A) (A) (A) (A) (A) (A)
       Virtual   (A) (A) (A) (A) (A) (A) (A) (A) (A) (A) (A) (A)
                 (A) (A) (A) (A) (A) (A) (A) (A) (A) (A)
 The electronic state is 1-A.
 Alpha  occ. eigenvalues --   -1.08709  -1.00041  -0.60742  -0.53476  -0.42880
 Alpha  occ. eigenvalues --   -0.36800  -0.33071  -0.28577
 Alpha virt. eigenvalues --    0.02940   0.08690   0.09431   0.11986   0.15436
 Alpha virt. eigenvalues --    0.16344   0.18738   0.23285   0.24292   0.32577
 Alpha virt. eigenvalues --    0.88765   1.01305   1.09582   1.11770   1.14704
 Alpha virt. eigenvalues --    1.17203   1.19457   1.22527   1.26279   1.29625
 Alpha virt. eigenvalues --    2.00842   2.52545
          Condensed to atoms (all electrons):
               1          2          3          4          5          6
     1  O    6.314433   0.280579   0.280605  -0.018549  -0.000702   0.001611
     2  H    0.280579   0.306642  -0.021684   0.000271   0.000685  -0.000013
     3  H    0.280605  -0.021684   0.306665   0.000271   0.000682  -0.000013
     4  O   -0.018549   0.000271   0.000271   6.314039   0.277253   0.281146
     5  H   -0.000702   0.000685   0.000682   0.277253   0.281316  -0.023544
     6  H    0.001611  -0.000013  -0.000013   0.281146  -0.023544   0.359708
 Mulliken charges:
               1
     1  O   -0.857977
     2  H    0.433521
     3  H    0.433473
     4  O   -0.854431
     5  H    0.464310
     6  H    0.381104
 Sum of Mulliken charges =   0.00000
 Mulliken charges with hydrogens summed into heavy atoms:
               1
     1  O    0.009017
     4  O   -0.009017
 Electronic spatial extent (au):  <R**2>=            148.0849
 Charge=              0.0000 electrons
 Dipole moment (field-independent basis, Debye):
    X=             -4.2410    Y=             -0.0084    Z=              1.2739  Tot=              4.4282
 Quadrupole moment (field-independent basis, Debye-Ang):
   XX=             -9.1103   YY=            -11.8608   ZZ=            -14.1106
   XY=             -0.0316   XZ=              5.9466   YZ=              0.0030
 Traceless Quadrupole moment (field-independent basis, Debye-Ang):
   XX=              2.5836   YY=             -0.1669   ZZ=             -2.4167
   XY=             -0.0316   XZ=              5.9466   YZ=              0.0030
 Octapole moment (field-independent basis, Debye-Ang**2):
  XXX=            -17.7576  YYY=              0.0010  ZZZ=              1.3537  XYY=             -7.5808
  XXY=             -0.0448  XXZ=              5.2931  XZZ=              1.2614  YZZ=             -0.0067
  YYZ=             -0.0019  XYZ=             -0.0356
 Hexadecapole moment (field-independent basis, Debye-Ang**3):
 XXXX=           -140.5775 YYYY=            -14.9376 ZZZZ=            -16.7027 XXXY=             -0.0913
 XXXZ=             22.7040 YYYX=             -0.0320 YYYZ=              0.0068 ZZZX=              5.3043
 ZZZY=             -0.0022 XXYY=            -24.6522 XXZZ=            -30.7713 YYZZ=             -5.6672
 XXYZ=              0.0090 YYXZ=              1.9657 ZZXY=             -0.0101
 N-N= 2.618975293370D+01 E-N=-1.345711988797D+02  KE= 2.720996339760D+01
 1\1\GINC-HUMAN\FOpt\RPBE1PBE\SDDAll\H4O2\HUMAN\25-Jul-2019\0\\# PBE1PB
 E/SDDAll scf=(maxcycle=512) opt=(cartesian,maxcycle=512)\\Cellular Aut
 omata job -34.4138684074\\0,1\O,-1.2844899001,0.0009196987,0.075032529
 \H,-1.8058958821,-0.7607620478,-0.2179379872\H,-1.7766124834,0.8310610
 503,-0.0054475755\O,1.4227417636,-0.0193185746,-0.1171255589\H,0.44335
 58251,-0.0173490919,-0.0124406726\H,1.8790936769,-0.1421270355,0.72755
 5265\\Version=ES64L-G09RevD.01\State=1-A\HF=-34.4139096\RMSD=3.661e-09
 \RMSF=1.655e-05\Dipole=-1.6650242,-0.0414361,0.511121\Quadrupole=1.977
 722,-0.1331197,-1.8446023,-0.6258389,4.3512136,0.1520885\PG=C01 [X(H4O
 2)]\\@


 A SOLDIER'S LIFE IS A LIFE OF HONOR, BUT A DOG WOULD NOT LEAD IT.
 -- PRINCE RUPERT, FOUNDER OF THE HUDSON'S BAY COMPANY
 Job cpu time:       0 days  0 hours  1 minutes 15.5 seconds.
 File lengths (MBytes):  RWF=      5 Int=      0 D2E=      0 Chk=      1 Scr=      1
 Normal termination of Gaussian 09 at Thu Jul 25 18:23:20 2019.
