 Entering Gaussian System, Link 0=g09
 Input=Kick0008-opt.com
 Output=Kick0008-opt.log
 Initial command:
 /home/human/g09/l1.exe "/tmp/Gau-8705.inp" -scrdir="/tmp/"
 Entering Link 1 = /home/human/g09/l1.exe PID=      8707.
  
 Copyright (c) 1988,1990,1992,1993,1995,1998,2003,2009,2013,
            Gaussian, Inc.  All Rights Reserved.
  
 This is part of the Gaussian(R) 09 program.  It is based on
 the Gaussian(R) 03 system (copyright 2003, Gaussian, Inc.),
 the Gaussian(R) 98 system (copyright 1998, Gaussian, Inc.),
 the Gaussian(R) 94 system (copyright 1995, Gaussian, Inc.),
 the Gaussian 92(TM) system (copyright 1992, Gaussian, Inc.),
 the Gaussian 90(TM) system (copyright 1990, Gaussian, Inc.),
 the Gaussian 88(TM) system (copyright 1988, Gaussian, Inc.),
 the Gaussian 86(TM) system (copyright 1986, Carnegie Mellon
 University), and the Gaussian 82(TM) system (copyright 1983,
 Carnegie Mellon University). Gaussian is a federally registered
 trademark of Gaussian, Inc.
  
 This software contains proprietary and confidential information,
 including trade secrets, belonging to Gaussian, Inc.
  
 This software is provided under written license and may be
 used, copied, transmitted, or stored only in accord with that
 written license.
  
 The following legend is applicable only to US Government
 contracts under FAR:
  
                    RESTRICTED RIGHTS LEGEND
  
 Use, reproduction and disclosure by the US Government is
 subject to restrictions as set forth in subparagraphs (a)
 and (c) of the Commercial Computer Software - Restricted
 Rights clause in FAR 52.227-19.
  
 Gaussian, Inc.
 340 Quinnipiac St., Bldg. 40, Wallingford CT 06492
  
  
 ---------------------------------------------------------------
 Warning -- This program may not be used in any manner that
 competes with the business of Gaussian, Inc. or will provide
 assistance to any competitor of Gaussian, Inc.  The licensee
 of this program is prohibited from giving any competitor of
 Gaussian, Inc. access to this program.  By using this program,
 the user acknowledges that Gaussian, Inc. is engaged in the
 business of creating and licensing software in the field of
 computational chemistry and represents and warrants to the
 licensee that it is not a competitor of Gaussian, Inc. and that
 it will not use this program in any manner prohibited above.
 ---------------------------------------------------------------
  

 Cite this work as:
 Gaussian 09, Revision D.01,
 M. J. Frisch, G. W. Trucks, H. B. Schlegel, G. E. Scuseria, 
 M. A. Robb, J. R. Cheeseman, G. Scalmani, V. Barone, B. Mennucci, 
 G. A. Petersson, H. Nakatsuji, M. Caricato, X. Li, H. P. Hratchian, 
 A. F. Izmaylov, J. Bloino, G. Zheng, J. L. Sonnenberg, M. Hada, 
 M. Ehara, K. Toyota, R. Fukuda, J. Hasegawa, M. Ishida, T. Nakajima, 
 Y. Honda, O. Kitao, H. Nakai, T. Vreven, J. A. Montgomery, Jr., 
 J. E. Peralta, F. Ogliaro, M. Bearpark, J. J. Heyd, E. Brothers, 
 K. N. Kudin, V. N. Staroverov, T. Keith, R. Kobayashi, J. Normand, 
 K. Raghavachari, A. Rendell, J. C. Burant, S. S. Iyengar, J. Tomasi, 
 M. Cossi, N. Rega, J. M. Millam, M. Klene, J. E. Knox, J. B. Cross, 
 V. Bakken, C. Adamo, J. Jaramillo, R. Gomperts, R. E. Stratmann, 
 O. Yazyev, A. J. Austin, R. Cammi, C. Pomelli, J. W. Ochterski, 
 R. L. Martin, K. Morokuma, V. G. Zakrzewski, G. A. Voth, 
 P. Salvador, J. J. Dannenberg, S. Dapprich, A. D. Daniels, 
 O. Farkas, J. B. Foresman, J. V. Ortiz, J. Cioslowski, 
 and D. J. Fox, Gaussian, Inc., Wallingford CT, 2013.
 
 ******************************************
 Gaussian 09:  ES64L-G09RevD.01 24-Apr-2013
                25-Jul-2019 
 ******************************************
 %NProc=4
 Will use up to    4 processors via shared memory.
 %mem=4GB
 ----------------------------------------------------------------
 # PBE1PBE/SDDAll scf=(maxcycle=512) opt=(cartesian,maxcycle=512)
 ----------------------------------------------------------------
 1/6=512,10=7,14=-1,18=10,26=3,38=1/1,3;
 2/12=2,17=6,18=5,29=2,40=1/2;
 3/5=17,6=6,11=2,16=1,25=1,30=1,71=1,74=-13/1,2,3;
 4//1;
 5/5=2,7=512,38=5/2;
 6/7=2,8=2,9=2,10=2,28=1/1;
 7/7=1,29=1/1,2,3,16;
 1/6=512,10=7,14=-1,18=10,26=3/3(2);
 2/29=1/2;
 99/12=1/99;
 2/29=1/2;
 3/5=17,6=6,11=2,16=1,25=1,30=1,71=1,74=-13/1,2,3;
 4/5=5,16=3,69=1/1;
 5/5=2,7=512,38=5/2;
 7/7=1/1,2,3,16;
 1/6=512,14=-1,18=10,26=3/3(-5);
 2/29=1/2;
 6/7=2,8=2,9=2,10=2,19=2,28=1/1;
 99/9=1,12=1/99;
 -----------------------
 Cellular Automata job 8
 -----------------------
 Symbolic Z-matrix:
 Charge =  0 Multiplicity = 1
 O                    -1.91184   2.51858   0.03776 
 H                    -2.45605   1.70034   0.13341 
 H                    -1.99111   2.97023   0.91214 
 O                    -1.15964   0.01059   2.94826 
 H                    -1.36631  -0.81983   2.45583 
 H                    -0.79063   0.61774   2.26272 
 

 GradGradGradGradGradGradGradGradGradGradGradGradGradGradGradGradGradGrad
 Berny optimization.
 Initialization pass.
 No Z-matrix variables, so optimization will use Cartesian coordinates.
 Trust Radius=3.00D-01 FncErr=1.00D-07 GrdErr=1.00D-06
 Number of steps in this run=    100 maximum allowed number of steps=    100.
 GradGradGradGradGradGradGradGradGradGradGradGradGradGradGradGradGradGrad

 ---------------------------------------------------------------------------------------------------
                            Z-MATRIX (ANGSTROMS AND DEGREES)
   CD    Cent   Atom    N1       Length/X        N2       Alpha/Y        N3        Beta/Z          J
 ---------------------------------------------------------------------------------------------------
      1      1  O        0  -1.911840          2.518580          0.037760
      2      2  H        0  -2.456050          1.700340          0.133410
      3      3  H        0  -1.991110          2.970230          0.912140
      4      4  O        0  -1.159640          0.010590          2.948260
      5      5  H        0  -1.366310         -0.819830          2.455830
      6      6  H        0  -0.790630          0.617740          2.262720
 ---------------------------------------------------------------------------------------------------
                         Z-Matrix orientation:                         
 ---------------------------------------------------------------------
 Center     Atomic      Atomic             Coordinates (Angstroms)
 Number     Number       Type             X           Y           Z
 ---------------------------------------------------------------------
      1          8           0       -1.911840    2.518580    0.037760
      2          1           0       -2.456050    1.700340    0.133410
      3          1           0       -1.991110    2.970230    0.912140
      4          8           0       -1.159640    0.010590    2.948260
      5          1           0       -1.366310   -0.819830    2.455830
      6          1           0       -0.790630    0.617740    2.262720
 ---------------------------------------------------------------------
                    Distance matrix (angstroms):
                    1          2          3          4          5
     1  O    0.000000
     2  H    0.987335   0.000000
     3  H    0.987326   1.560516   0.000000
     4  O    3.914949   3.529775   3.687356   0.000000
     5  H    4.158082   3.596168   4.139796   0.987318   0.000000
     6  H    3.133808   2.911977   2.966383   0.987302   1.560547
                    6
     6  H    0.000000
 Stoichiometry    H4O2
 Framework group  C1[X(H4O2)]
 Deg. of freedom    12
 Full point group                 C1      NOp   1
 Largest Abelian subgroup         C1      NOp   1
 Largest concise Abelian subgroup C1      NOp   1
                         Standard orientation:                         
 ---------------------------------------------------------------------
 Center     Atomic      Atomic             Coordinates (Angstroms)
 Number     Number       Type             X           Y           Z
 ---------------------------------------------------------------------
      1          8           0       -1.963145    0.020950    0.072131
      2          1           0       -1.463899    0.752298   -0.364575
      3          1           0       -1.654783   -0.796321   -0.388078
      4          8           0        1.948418   -0.092219   -0.044889
      5          1           0        2.105708    0.877528    0.053335
      6          1           0        1.130790   -0.263357    0.481381
 ---------------------------------------------------------------------
 Rotational constants (GHZ):    181.9536518      3.7799082      3.7364383
 Standard basis: SDDAll (6D, 10F)
 There are    30 symmetry adapted cartesian basis functions of A   symmetry.
 There are    30 symmetry adapted basis functions of A   symmetry.
    30 basis functions,    54 primitive gaussians,    30 cartesian basis functions
     8 alpha electrons        8 beta electrons
       nuclear repulsion energy        22.5800431417 Hartrees.
 NAtoms=    6 NActive=    6 NUniq=    6 SFac= 1.00D+00 NAtFMM=   60 NAOKFM=F Big=F
 Integral buffers will be    131072 words long.
 Raffenetti 2 integral format.
 Two-electron integral symmetry is turned on.
 One-electron integrals computed using PRISM.
   1 Symmetry operations used in ECPInt.
 ECPInt:  NShTT=     171 NPrTT=     619 LenC2=     172 LenP2D=     551.
 LDataN:  DoStor=T MaxTD1= 4 Len=   56
 NBasis=    30 RedAO= T EigKep=  5.92D-02  NBF=    30
 NBsUse=    30 1.00D-06 EigRej= -1.00D+00 NBFU=    30
 ExpMin= 7.02D-02 ExpMax= 4.71D+01 ExpMxC= 4.71D+01 IAcc=2 IRadAn=         4 AccDes= 0.00D+00
 Harris functional with IExCor= 1009 and IRadAn=       4 diagonalized for initial guess.
 HarFok:  IExCor= 1009 AccDes= 0.00D+00 IRadAn=         4 IDoV= 1 UseB2=F ITyADJ=14
 ICtDFT=  3500011 ScaDFX=  1.000000  1.000000  1.000000  1.000000
 FoFCou: FMM=F IPFlag=           0 FMFlag=      100000 FMFlg1=           0
         NFxFlg=           0 DoJE=T BraDBF=F KetDBF=T FulRan=T
         wScrn=  0.000000 ICntrl=     500 IOpCl=  0 I1Cent=   200000004 NGrid=           0
         NMat0=    1 NMatS0=      1 NMatT0=    0 NMatD0=    1 NMtDS0=    0 NMtDT0=    0
 Petite list used in FoFCou.
 Keep R1 ints in memory in canonical form, NReq=1237769.
 Requested convergence on RMS density matrix=1.00D-08 within 512 cycles.
 Requested convergence on MAX density matrix=1.00D-06.
 Requested convergence on             energy=1.00D-06.
 No special actions if energy rises.
 Integral accuracy reduced to 1.0D-05 until final iterations.
 Initial convergence to 1.0D-05 achieved.  Increase integral accuracy.
 SCF Done:  E(RPBE1PBE) =  -34.3971140261     A.U. after   12 cycles
            NFock= 12  Conv=0.93D-09     -V/T= 2.2756

 **********************************************************************

            Population analysis using the SCF density.

 **********************************************************************

 Orbital symmetries:
       Occupied  (A) (A) (A) (A) (A) (A) (A) (A)
       Virtual   (A) (A) (A) (A) (A) (A) (A) (A) (A) (A) (A) (A)
                 (A) (A) (A) (A) (A) (A) (A) (A) (A) (A)
 The electronic state is 1-A.
 Alpha  occ. eigenvalues --   -1.06279  -1.06013  -0.56443  -0.56216  -0.40400
 Alpha  occ. eigenvalues --   -0.40067  -0.34284  -0.33870
 Alpha virt. eigenvalues --    0.02247   0.06193   0.08228   0.10883   0.13295
 Alpha virt. eigenvalues --    0.15308   0.16715   0.18724   0.20387   0.21863
 Alpha virt. eigenvalues --    0.87729   0.95614   1.04330   1.06166   1.12836
 Alpha virt. eigenvalues --    1.15887   1.16948   1.18335   1.19780   1.23395
 Alpha virt. eigenvalues --    2.09213   2.11257
          Condensed to atoms (all electrons):
               1          2          3          4          5          6
     1  O    6.209298   0.277603   0.279027   0.002655  -0.000099   0.002360
     2  H    0.277603   0.366602  -0.027955   0.000382  -0.000013   0.000086
     3  H    0.279027  -0.027955   0.359717   0.000212   0.000001   0.000048
     4  O    0.002655   0.000382   0.000212   6.214227   0.279306   0.276651
     5  H   -0.000099  -0.000013   0.000001   0.279306   0.363349  -0.027804
     6  H    0.002360   0.000086   0.000048   0.276651  -0.027804   0.361888
 Mulliken charges:
               1
     1  O   -0.770844
     2  H    0.383295
     3  H    0.388950
     4  O   -0.773434
     5  H    0.385262
     6  H    0.386771
 Sum of Mulliken charges =   0.00000
 Mulliken charges with hydrogens summed into heavy atoms:
               1
     1  O    0.001401
     4  O   -0.001401
 Electronic spatial extent (au):  <R**2>=            248.1391
 Charge=              0.0000 electrons
 Dipole moment (field-independent basis, Debye):
    X=              0.2939    Y=              1.5537    Z=             -0.6053  Tot=              1.6931
 Quadrupole moment (field-independent basis, Debye-Ang):
   XX=            -25.4432   YY=             -9.8644   ZZ=            -14.3376
   XY=              5.2938   XZ=              4.7545   YZ=             -0.1661
 Traceless Quadrupole moment (field-independent basis, Debye-Ang):
   XX=             -8.8948   YY=              6.6840   ZZ=              2.2108
   XY=              5.2938   XZ=              4.7545   YZ=             -0.1661
 Octapole moment (field-independent basis, Debye-Ang**2):
  XXX=              9.3414  YYY=              1.7786  ZZZ=             -0.3217  XYY=             -1.2358
  XXY=              8.7821  XXZ=             -3.2402  XZZ=             -0.3315  YZZ=              0.1533
  YYZ=             -0.7373  XYZ=             -0.5769
 Hexadecapole moment (field-independent basis, Debye-Ang**3):
 XXXX=           -406.1446 YYYY=            -14.1104 ZZZZ=            -16.9331 XXXY=             31.8711
 XXXZ=             10.2486 YYYX=              5.8828 YYYZ=              0.0264 ZZZX=              2.8474
 ZZZY=             -0.1905 XXYY=            -43.9936 XXZZ=            -59.8635 YYZZ=             -5.2765
 XXYZ=              0.1892 YYXZ=              2.0886 ZZXY=              1.1161
 N-N= 2.258004314165D+01 E-N=-1.269128316357D+02  KE= 2.696523349214D+01
   1 Symmetry operations used in ECPInt.
 ECPInt:  NShTT=     171 NPrTT=     619 LenC2=     172 LenP2D=     551.
 LDataN:  DoStor=T MaxTD1= 5 Len=  102
 Calling FoFJK, ICntrl=      2127 FMM=F ISym2X=0 I1Cent= 0 IOpClX= 0 NMat=1 NMatS=1 NMatT=0.
 ***** Axes restored to original set *****
 -------------------------------------------------------------------
 Center     Atomic                   Forces (Hartrees/Bohr)
 Number     Number              X              Y              Z
 -------------------------------------------------------------------
      1        8          -0.011391024   -0.011069619    0.023851909
      2        1           0.005756127    0.007555041   -0.009979293
      3        1           0.004769929    0.003048762   -0.012475510
      4        8           0.001014314   -0.003732791   -0.027831344
      5        1           0.000217105    0.004651993    0.013435153
      6        1          -0.000366451   -0.000453387    0.012999084
 -------------------------------------------------------------------
 Cartesian Forces:  Max     0.027831344 RMS     0.011449752

 GradGradGradGradGradGradGradGradGradGradGradGradGradGradGradGradGradGrad
 Berny optimization.
 Search for a local minimum.
 Step number   1 out of a maximum of  100
 All quantities printed in internal units (Hartrees-Bohrs-Radians)
 Second derivative matrix not updated -- first step.
 The second derivative matrix:
                          X1        Y1        Z1        X2        Y2
           X1           0.18557
           Y1           0.22790   0.45845
           Z1          -0.10966   0.13449   0.47054
           X2          -0.16027  -0.23328   0.03977   0.15418
           Y2          -0.21863  -0.33760   0.02504   0.22566   0.34640
           Z2           0.06185   0.06081  -0.05940  -0.03639  -0.02894
           X3          -0.02530   0.00538   0.06989   0.00609  -0.00703
           Y3          -0.00927  -0.12085  -0.15953   0.00762  -0.00879
           Z3           0.04781  -0.19530  -0.41114  -0.00338   0.00391
           X4           0.00000   0.00000   0.00000   0.00000   0.00000
           Y4           0.00000   0.00000   0.00000   0.00000   0.00000
           Z4           0.00000   0.00000   0.00000   0.00000   0.00000
           X5           0.00000   0.00000   0.00000   0.00000   0.00000
           Y5           0.00000   0.00000   0.00000   0.00000   0.00000
           Z5           0.00000   0.00000   0.00000   0.00000   0.00000
           X6           0.00000   0.00000   0.00000   0.00000   0.00000
           Y6           0.00000   0.00000   0.00000   0.00000   0.00000
           Z6           0.00000   0.00000   0.00000   0.00000   0.00000
                          Z2        X3        Y3        Z3        X4
           Z2           0.04525
           X3          -0.02546   0.01921
           Y3          -0.03186   0.00165   0.12964
           Z3           0.01415  -0.04443   0.19139   0.39699
           X4           0.00000   0.00000   0.00000   0.00000   0.09381
           Y4           0.00000   0.00000   0.00000   0.00000   0.20007
           Z4           0.00000   0.00000   0.00000   0.00000  -0.09255
           X5           0.00000   0.00000   0.00000   0.00000  -0.02514
           Y5           0.00000   0.00000   0.00000   0.00000  -0.09209
           Z5           0.00000   0.00000   0.00000   0.00000  -0.04395
           X6           0.00000   0.00000   0.00000   0.00000  -0.06867
           Y6           0.00000   0.00000   0.00000   0.00000  -0.10798
           Z6           0.00000   0.00000   0.00000   0.00000   0.13650
                          Y4        Z4        X5        Y5        Z5
           Y4           0.54661
           Z4           0.01687   0.47423
           X5          -0.08356  -0.02870   0.02697
           Y5          -0.34803  -0.18009   0.09440   0.36169
           Z5          -0.22104  -0.18414   0.03929   0.19344   0.15719
           X6          -0.11651   0.12125  -0.00183  -0.00231   0.00466
           Y6          -0.19858   0.16323  -0.01084  -0.01367   0.02760
           Z6           0.20417  -0.29009  -0.01059  -0.01335   0.02695
                          X6        Y6        Z6
           X6           0.07050
           Y6           0.11882   0.21225
           Z6          -0.12591  -0.19082   0.26314
 ITU=  0
     Eigenvalues ---    0.00000   0.00000   0.00000   0.00000   0.00000
     Eigenvalues ---    0.00000   0.13985   0.14285   0.81410   0.84694
     Eigenvalues ---    0.95344   0.99506
 RFO step:  Lambda=-9.18146372D-03 EMin=-9.99200722D-16
 Linear search not attempted -- first point.
 Maximum step size (   0.300) exceeded in Quadratic search.
    -- Step size scaled by   0.417
 TrRot=  0.000000  0.000000  0.000000  0.000000  0.000000  0.000000
 MatCor failed.
 Variable       Old X    -DE/DX   Delta X   Delta X   Delta X     New X
                                 (Linear)    (Quad)   (Total)
    X1       -3.61285  -0.01139   0.00000   0.07956   0.07956  -3.53330
    Y1        4.75943  -0.01107   0.00000  -0.10009  -0.10009   4.65934
    Z1        0.07136   0.02385   0.00000   0.09671   0.09671   0.16807
    X2       -4.64126   0.00576   0.00000  -0.12724  -0.12724  -4.76850
    Y2        3.21318   0.00756   0.00000   0.03602   0.03602   3.24920
    Z2        0.25211  -0.00998   0.00000  -0.01081  -0.01081   0.24130
    X3       -3.76265   0.00477   0.00000  -0.07179  -0.07179  -3.83444
    Y3        5.61292   0.00305   0.00000   0.05857   0.05857   5.67149
    Z3        1.72369  -0.01248   0.00000  -0.00884  -0.00884   1.71486
    X4       -2.19140   0.00101   0.00000  -0.07211  -0.07211  -2.26351
    Y4        0.02001  -0.00373   0.00000   0.07136   0.07136   0.09137
    Z4        5.57140  -0.02783   0.00000  -0.08332  -0.08332   5.48808
    X5       -2.58195   0.00022   0.00000   0.05754   0.05754  -2.52442
    Y5       -1.54925   0.00465   0.00000  -0.01431  -0.01431  -1.56357
    Z5        4.64085   0.01344   0.00000   0.02432   0.02432   4.66517
    X6       -1.49407  -0.00037   0.00000   0.12325   0.12325  -1.37082
    Y6        1.16736  -0.00045   0.00000  -0.00990  -0.00990   1.15746
    Z6        4.27592   0.01300   0.00000  -0.03747  -0.03747   4.23845
         Item               Value     Threshold  Converged?
 Maximum Force            0.027831     0.000450     NO 
 RMS     Force            0.011450     0.000300     NO 
 Maximum Displacement     0.127239     0.001800     NO 
 RMS     Displacement     0.070711     0.001200     NO 
 Predicted change in Energy=-3.442508D-03
 GradGradGradGradGradGradGradGradGradGradGradGradGradGradGradGradGradGrad

                          Input orientation:                          
 ---------------------------------------------------------------------
 Center     Atomic      Atomic             Coordinates (Angstroms)
 Number     Number       Type             X           Y           Z
 ---------------------------------------------------------------------
      1          8           0       -1.869740    2.465616    0.088937
      2          1           0       -2.523382    1.719400    0.127689
      3          1           0       -2.029099    3.001222    0.907463
      4          8           0       -1.197799    0.048352    2.904167
      5          1           0       -1.335863   -0.827405    2.468702
      6          1           0       -0.725408    0.612500    2.242893
 ---------------------------------------------------------------------
                    Distance matrix (angstroms):
                    1          2          3          4          5
     1  O    0.000000
     2  H    0.992767   0.000000
     3  H    0.991087   1.579693   0.000000
     4  O    3.770967   3.501201   3.660236   0.000000
     5  H    4.097840   3.657426   4.192425   0.987746   0.000000
     6  H    3.063178   2.988649   3.031331   0.989293   1.580181
                    6
     6  H    0.000000
 Stoichiometry    H4O2
 Framework group  C1[X(H4O2)]
 Deg. of freedom    12
 Full point group                 C1      NOp   1
 Largest Abelian subgroup         C1      NOp   1
 Largest concise Abelian subgroup C1      NOp   1
                         Standard orientation:                         
 ---------------------------------------------------------------------
 Center     Atomic      Atomic             Coordinates (Angstroms)
 Number     Number       Type             X           Y           Z
 ---------------------------------------------------------------------
      1          8           0       -1.887247    0.021759    0.087167
      2          1           0       -1.493682    0.772233   -0.430019
      3          1           0       -1.692451   -0.794876   -0.439536
      4          8           0        1.879202   -0.090636   -0.059186
      5          1           0        2.125231    0.853790    0.093031
      6          1           0        1.125264   -0.280126    0.552674
 ---------------------------------------------------------------------
 Rotational constants (GHZ):    168.7804281      4.0329330      3.9907204
 Standard basis: SDDAll (6D, 10F)
 There are    30 symmetry adapted cartesian basis functions of A   symmetry.
 There are    30 symmetry adapted basis functions of A   symmetry.
    30 basis functions,    54 primitive gaussians,    30 cartesian basis functions
     8 alpha electrons        8 beta electrons
       nuclear repulsion energy        22.7555936666 Hartrees.
 NAtoms=    6 NActive=    6 NUniq=    6 SFac= 1.00D+00 NAtFMM=   60 NAOKFM=F Big=F
 Integral buffers will be    131072 words long.
 Raffenetti 2 integral format.
 Two-electron integral symmetry is turned on.
 One-electron integrals computed using PRISM.
   1 Symmetry operations used in ECPInt.
 ECPInt:  NShTT=     171 NPrTT=     619 LenC2=     172 LenP2D=     551.
 LDataN:  DoStor=T MaxTD1= 4 Len=   56
 NBasis=    30 RedAO= T EigKep=  5.96D-02  NBF=    30
 NBsUse=    30 1.00D-06 EigRej= -1.00D+00 NBFU=    30
 Initial guess from the checkpoint file:  "/tmp/Gau-8707.chk"
 B after Tr=     0.000000    0.000000    0.000000
         Rot=    0.999975   -0.006870   -0.001467    0.001245 Ang=  -0.82 deg.
 ExpMin= 7.02D-02 ExpMax= 4.71D+01 ExpMxC= 4.71D+01 IAcc=2 IRadAn=         4 AccDes= 0.00D+00
 Harris functional with IExCor= 1009 and IRadAn=       4 diagonalized for initial guess.
 HarFok:  IExCor= 1009 AccDes= 0.00D+00 IRadAn=         4 IDoV= 1 UseB2=F ITyADJ=14
 ICtDFT=  3500011 ScaDFX=  1.000000  1.000000  1.000000  1.000000
 FoFCou: FMM=F IPFlag=           0 FMFlag=      100000 FMFlg1=           0
         NFxFlg=           0 DoJE=T BraDBF=F KetDBF=T FulRan=T
         wScrn=  0.000000 ICntrl=     500 IOpCl=  0 I1Cent=   200000004 NGrid=           0
         NMat0=    1 NMatS0=      1 NMatT0=    0 NMatD0=    1 NMtDS0=    0 NMtDT0=    0
 Petite list used in FoFCou.
 Keep R1 ints in memory in canonical form, NReq=1237769.
 Requested convergence on RMS density matrix=1.00D-08 within 512 cycles.
 Requested convergence on MAX density matrix=1.00D-06.
 Requested convergence on             energy=1.00D-06.
 No special actions if energy rises.
 Integral accuracy reduced to 1.0D-05 until final iterations.
 Initial convergence to 1.0D-05 achieved.  Increase integral accuracy.
 SCF Done:  E(RPBE1PBE) =  -34.3994008857     A.U. after   11 cycles
            NFock= 11  Conv=0.72D-08     -V/T= 2.2764
   1 Symmetry operations used in ECPInt.
 ECPInt:  NShTT=     171 NPrTT=     619 LenC2=     172 LenP2D=     551.
 LDataN:  DoStor=T MaxTD1= 5 Len=  102
 Calling FoFJK, ICntrl=      2127 FMM=F ISym2X=0 I1Cent= 0 IOpClX= 0 NMat=1 NMatS=1 NMatT=0.
 ***** Axes restored to original set *****
 -------------------------------------------------------------------
 Center     Atomic                   Forces (Hartrees/Bohr)
 Number     Number              X              Y              Z
 -------------------------------------------------------------------
      1        8          -0.017815618   -0.008741841    0.022387305
      2        1           0.011357912    0.010744273   -0.006586768
      3        1           0.006121659   -0.002942493   -0.014057868
      4        8           0.005207725   -0.004790220   -0.024813305
      5        1          -0.000210740    0.008575721    0.010980156
      6        1          -0.004660937   -0.002845439    0.012090481
 -------------------------------------------------------------------
 Cartesian Forces:  Max     0.024813305 RMS     0.011696414

 GradGradGradGradGradGradGradGradGradGradGradGradGradGradGradGradGradGrad
 Berny optimization.
 Search for a local minimum.
 Step number   2 out of a maximum of  100
 All quantities printed in internal units (Hartrees-Bohrs-Radians)
 Update second derivatives using D2CorN and points    1    2
 DE= -2.29D-03 DEPred=-3.44D-03 R= 6.64D-01
 TightC=F SS=  1.41D+00  RLast= 3.00D-01 DXNew= 5.0454D-01 9.0000D-01
 Trust test= 6.64D-01 RLast= 3.00D-01 DXMaxT set to 5.05D-01
 The second derivative matrix:
                          X1        Y1        Z1        X2        Y2
           X1           0.19651
           Y1           0.22159   0.45701
           Z1          -0.10638   0.13942   0.46236
           X2          -0.17299  -0.22919   0.04033   0.16689
           Y2          -0.21882  -0.33399   0.02027   0.22813   0.34398
           Z2           0.06137   0.06040  -0.05863  -0.03626  -0.02846
           X3          -0.03197   0.00704   0.07082   0.01244  -0.00540
           Y3          -0.00293  -0.12333  -0.15920   0.00101  -0.00971
           Z3           0.05016  -0.19908  -0.40718  -0.00767   0.00554
           X4          -0.00748   0.00266  -0.00002   0.00764   0.00128
           Y4           0.00629  -0.00123  -0.00134  -0.00578  -0.00177
           Z4          -0.00220  -0.00503   0.00781  -0.00148   0.00439
           X5           0.00429   0.00000  -0.00203  -0.00340  -0.00178
           Y5          -0.00366   0.00326  -0.00264   0.00499  -0.00073
           Z5           0.00039   0.00178  -0.00258   0.00083  -0.00139
           X6           0.01090  -0.00217  -0.00226  -0.01003  -0.00304
           Y6           0.00040  -0.00143   0.00173  -0.00123   0.00082
           Z6          -0.00467   0.00236  -0.00096   0.00522   0.00031
                          Z2        X3        Y3        Z3        X4
           Z2           0.04518
           X3          -0.02546   0.02233
           Y3          -0.03199  -0.00171   0.13304
           Z3           0.01372  -0.04690   0.19331   0.39633
           X4           0.00011   0.00385  -0.00395  -0.00240   0.09838
           Y4           0.00004  -0.00280   0.00309   0.00250   0.19655
           Z4          -0.00075  -0.00137   0.00018  -0.00349  -0.09310
           X5           0.00014  -0.00155   0.00191   0.00210  -0.02727
           Y5           0.00032   0.00272  -0.00238  -0.00023  -0.08922
           Z5           0.00025   0.00062  -0.00024   0.00105  -0.04356
           X6           0.00007  -0.00487   0.00536   0.00431  -0.07478
           Y6          -0.00018  -0.00076   0.00051  -0.00049  -0.10864
           Z6           0.00016   0.00270  -0.00263  -0.00116   0.13959
                          Y4        Z4        X5        Y5        Z5
           Y4           0.54909
           Z4           0.01858   0.46685
           X5          -0.08226  -0.02650   0.02745
           Y5          -0.35067  -0.17793   0.09241   0.36265
           Z5          -0.22176  -0.18173   0.03847   0.19285   0.15641
           X6          -0.11219   0.12417   0.00044  -0.00688   0.00342
           Y6          -0.19779   0.16166  -0.01010  -0.01353   0.02808
           Z6           0.20164  -0.28956  -0.01226  -0.01171   0.02691
                          X6        Y6        Z6
           X6           0.07801
           Y6           0.12019   0.21198
           Z6          -0.13030  -0.19107   0.26512
 ITU=  1  0
     Eigenvalues ---   -0.00036   0.00000   0.00000   0.00000   0.00000
     Eigenvalues ---    0.02984   0.13987   0.14394   0.81498   0.85197
     Eigenvalues ---    0.95539   1.00009
 RFO step:  Lambda=-4.47859660D-03 EMin=-3.55326090D-04
 Quartic linear search produced a step of  0.17470.
 Maximum step size (   0.505) exceeded in Quadratic search.
    -- Step size scaled by   0.500
 TrRot= -0.008583  0.023274  0.003142  0.091212 -0.003423 -0.089336
 Variable       Old X    -DE/DX   Delta X   Delta X   Delta X     New X
                                 (Linear)    (Quad)   (Total)
    X1       -3.53330  -0.01782   0.01390  -0.01622  -0.02048  -3.55378
    Y1        4.65934  -0.00874  -0.01749  -0.07998  -0.08093   4.57841
    Z1        0.16807   0.02239   0.01690   0.11997   0.12935   0.29741
    X2       -4.76850   0.01136  -0.02223   0.16287   0.12517  -4.64333
    Y2        3.24920   0.01074   0.00629  -0.18091  -0.16014   3.08906
    Z2        0.24130  -0.00659  -0.00189   0.09863   0.08504   0.32634
    X3       -3.83444   0.00612  -0.01254   0.09541   0.05758  -3.77686
    Y3        5.67149  -0.00294   0.01023  -0.17803  -0.15216   5.51933
    Z3        1.71486  -0.01406  -0.00154   0.16326   0.15373   1.86859
    X4       -2.26351   0.00521  -0.01260  -0.07650  -0.11630  -2.37981
    Y4        0.09137  -0.00479   0.01247   0.15426   0.18392   0.27529
    Z4        5.48808  -0.02481  -0.01456  -0.14932  -0.16871   5.31937
    X5       -2.52442  -0.00021   0.01005  -0.06793  -0.07947  -2.60388
    Y5       -1.56357   0.00858  -0.00250   0.10644   0.12093  -1.44263
    Z5        4.66517   0.01098   0.00425  -0.04599  -0.04788   4.61729
    X6       -1.37082  -0.00466   0.02153   0.03677   0.03349  -1.33733
    Y6        1.15746  -0.00285  -0.00173   0.07056   0.08837   1.24582
    Z6        4.23845   0.01209  -0.00655  -0.14399  -0.15152   4.08693
         Item               Value     Threshold  Converged?
 Maximum Force            0.024813     0.000450     NO 
 RMS     Force            0.011696     0.000300     NO 
 Maximum Displacement     0.183923     0.001800     NO 
 RMS     Displacement     0.118622     0.001200     NO 
 Predicted change in Energy=-2.287156D-03
 GradGradGradGradGradGradGradGradGradGradGradGradGradGradGradGradGradGrad

                          Input orientation:                          
 ---------------------------------------------------------------------
 Center     Atomic      Atomic             Coordinates (Angstroms)
 Number     Number       Type             X           Y           Z
 ---------------------------------------------------------------------
      1          8           0       -1.880579    2.422791    0.157384
      2          1           0       -2.457143    1.634659    0.172689
      3          1           0       -1.998626    2.920703    0.988814
      4          8           0       -1.259342    0.145680    2.814889
      5          1           0       -1.377916   -0.763409    2.443365
      6          1           0       -0.707687    0.659261    2.162711
 ---------------------------------------------------------------------
                    Distance matrix (angstroms):
                    1          2          3          4          5
     1  O    0.000000
     2  H    0.976634   0.000000
     3  H    0.976283   1.590663   0.000000
     4  O    3.554364   3.260829   3.403211   0.000000
     5  H    3.953511   3.474396   4.009200   0.989208   0.000000
     6  H    2.916685   2.823505   2.856340   0.996707   1.597487
                    6
     6  H    0.000000
 Stoichiometry    H4O2
 Framework group  C1[X(H4O2)]
 Deg. of freedom    12
 Full point group                 C1      NOp   1
 Largest Abelian subgroup         C1      NOp   1
 Largest concise Abelian subgroup C1      NOp   1
                         Standard orientation:                         
 ---------------------------------------------------------------------
 Center     Atomic      Atomic             Coordinates (Angstroms)
 Number     Number       Type             X           Y           Z
 ---------------------------------------------------------------------
      1          8           0       -1.788963    0.021840    0.073286
      2          1           0       -1.365342    0.786855   -0.361581
      3          1           0       -1.551353   -0.792134   -0.410570
      4          8           0        1.760918   -0.091396   -0.064639
      5          1           0        2.080362    0.833324    0.081583
      6          1           0        1.060691   -0.271594    0.621390
 ---------------------------------------------------------------------
 Rotational constants (GHZ):    170.9802156      4.5342265      4.4809225
 Standard basis: SDDAll (6D, 10F)
 There are    30 symmetry adapted cartesian basis functions of A   symmetry.
 There are    30 symmetry adapted basis functions of A   symmetry.
    30 basis functions,    54 primitive gaussians,    30 cartesian basis functions
     8 alpha electrons        8 beta electrons
       nuclear repulsion energy        23.3774528519 Hartrees.
 NAtoms=    6 NActive=    6 NUniq=    6 SFac= 1.00D+00 NAtFMM=   60 NAOKFM=F Big=F
 Integral buffers will be    131072 words long.
 Raffenetti 2 integral format.
 Two-electron integral symmetry is turned on.
 One-electron integrals computed using PRISM.
   1 Symmetry operations used in ECPInt.
 ECPInt:  NShTT=     171 NPrTT=     619 LenC2=     172 LenP2D=     555.
 LDataN:  DoStor=T MaxTD1= 4 Len=   56
 NBasis=    30 RedAO= T EigKep=  5.92D-02  NBF=    30
 NBsUse=    30 1.00D-06 EigRej= -1.00D+00 NBFU=    30
 Initial guess from the checkpoint file:  "/tmp/Gau-8707.chk"
 B after Tr=     0.000000    0.000000    0.000000
         Rot=    0.999999   -0.001154    0.000479    0.001083 Ang=  -0.19 deg.
 ExpMin= 7.02D-02 ExpMax= 4.71D+01 ExpMxC= 4.71D+01 IAcc=2 IRadAn=         4 AccDes= 0.00D+00
 Harris functional with IExCor= 1009 and IRadAn=       4 diagonalized for initial guess.
 HarFok:  IExCor= 1009 AccDes= 0.00D+00 IRadAn=         4 IDoV= 1 UseB2=F ITyADJ=14
 ICtDFT=  3500011 ScaDFX=  1.000000  1.000000  1.000000  1.000000
 FoFCou: FMM=F IPFlag=           0 FMFlag=      100000 FMFlg1=           0
         NFxFlg=           0 DoJE=T BraDBF=F KetDBF=T FulRan=T
         wScrn=  0.000000 ICntrl=     500 IOpCl=  0 I1Cent=   200000004 NGrid=           0
         NMat0=    1 NMatS0=      1 NMatT0=    0 NMatD0=    1 NMtDS0=    0 NMtDT0=    0
 Petite list used in FoFCou.
 Keep R1 ints in memory in canonical form, NReq=1237769.
 Requested convergence on RMS density matrix=1.00D-08 within 512 cycles.
 Requested convergence on MAX density matrix=1.00D-06.
 Requested convergence on             energy=1.00D-06.
 No special actions if energy rises.
 Integral accuracy reduced to 1.0D-05 until final iterations.
 Initial convergence to 1.0D-05 achieved.  Increase integral accuracy.
 SCF Done:  E(RPBE1PBE) =  -34.4010472479     A.U. after   11 cycles
            NFock= 11  Conv=0.69D-08     -V/T= 2.2737
   1 Symmetry operations used in ECPInt.
 ECPInt:  NShTT=     171 NPrTT=     619 LenC2=     172 LenP2D=     555.
 LDataN:  DoStor=T MaxTD1= 5 Len=  102
 Calling FoFJK, ICntrl=      2127 FMM=F ISym2X=0 I1Cent= 0 IOpClX= 0 NMat=1 NMatS=1 NMatT=0.
 ***** Axes restored to original set *****
 -------------------------------------------------------------------
 Center     Atomic                   Forces (Hartrees/Bohr)
 Number     Number              X              Y              Z
 -------------------------------------------------------------------
      1        8          -0.002778921   -0.005271648    0.008416624
      2        1           0.001782512    0.004312033   -0.002064757
      3        1           0.000625472    0.000034947   -0.004464985
      4        8           0.009581912   -0.003747146   -0.026227209
      5        1           0.000290777    0.011541078    0.009472113
      6        1          -0.009501753   -0.006869264    0.014868214
 -------------------------------------------------------------------
 Cartesian Forces:  Max     0.026227209 RMS     0.009213430

 GradGradGradGradGradGradGradGradGradGradGradGradGradGradGradGradGradGrad
 Berny optimization.
 Search for a local minimum.
 Step number   3 out of a maximum of  100
 All quantities printed in internal units (Hartrees-Bohrs-Radians)
 Update second derivatives using D2CorN and points    2    3
 DE= -1.65D-03 DEPred=-2.29D-03 R= 7.20D-01
 TightC=F SS=  1.41D+00  RLast= 5.03D-01 DXNew= 8.4853D-01 1.5098D+00
 Trust test= 7.20D-01 RLast= 5.03D-01 DXMaxT set to 8.49D-01
 The second derivative matrix:
                          X1        Y1        Z1        X2        Y2
           X1           0.19707
           Y1           0.22264   0.45655
           Z1          -0.10824   0.13945   0.46344
           X2          -0.17486  -0.22943   0.04180   0.16872
           Y2          -0.21664  -0.33451   0.01970   0.22705   0.34372
           Z2           0.06021   0.06069  -0.05834  -0.03570  -0.02831
           X3          -0.03286   0.00679   0.07173   0.01351  -0.00618
           Y3          -0.00077  -0.12345  -0.16033  -0.00059  -0.00922
           Z3           0.04811  -0.19840  -0.40692  -0.00691   0.00614
           X4          -0.00564   0.00331  -0.00208   0.00527   0.00313
           Y4           0.00369  -0.00100  -0.00008  -0.00396  -0.00222
           Z4          -0.00048  -0.00783   0.01079   0.00086  -0.00031
           X5           0.00540  -0.00014  -0.00252  -0.00414  -0.00165
           Y5          -0.00502   0.00476  -0.00398   0.00409   0.00165
           Z5           0.00125   0.00241  -0.00401  -0.00071   0.00009
           X6           0.01015  -0.00324  -0.00025  -0.00798  -0.00532
           Y6          -0.00104  -0.00208   0.00355   0.00082  -0.00090
           Z6          -0.00218   0.00354  -0.00418   0.00161   0.00338
                          Z2        X3        Y3        Z3        X4
           Z2           0.04509
           X3          -0.02505   0.02293
           Y3          -0.03224  -0.00271   0.13421
           Z3           0.01339  -0.04628   0.19317   0.39542
           X4          -0.00086   0.00255  -0.00165  -0.00392   0.10121
           Y4           0.00026  -0.00164   0.00181   0.00252   0.19389
           Z4           0.00177  -0.00059  -0.00351   0.00140  -0.09437
           X5           0.00008  -0.00203   0.00240   0.00215  -0.02616
           Y5          -0.00096   0.00253  -0.00068  -0.00278  -0.08903
           Z5          -0.00053  -0.00017   0.00140  -0.00028  -0.04188
           X6           0.00128  -0.00387   0.00303   0.00643  -0.07686
           Y6           0.00073   0.00034  -0.00154   0.00097  -0.11102
           Z6          -0.00145   0.00078   0.00099  -0.00378   0.14375
                          Y4        Z4        X5        Y5        Z5
           Y4           0.55046
           Z4           0.02320   0.45722
           X5          -0.08278  -0.02857   0.02764
           Y5          -0.35284  -0.17208   0.09339   0.35921
           Z5          -0.22369  -0.18149   0.03928   0.19238   0.15732
           X6          -0.10941   0.12269  -0.00075  -0.00561   0.00241
           Y6          -0.19540   0.16229  -0.01110  -0.01343   0.02671
           Z6           0.19740  -0.29052  -0.01049  -0.01197   0.02931
                          X6        Y6        Z6
           X6           0.07898
           Y6           0.12184   0.21396
           Z6          -0.13316  -0.19453   0.27116
 ITU=  1  1  0
     Eigenvalues ---   -0.00493   0.00000   0.00000   0.00000   0.00875
     Eigenvalues ---    0.03006   0.13954   0.14389   0.81585   0.85189
     Eigenvalues ---    0.95961   1.00419
 RFO step:  Lambda=-1.12498933D-02 EMin=-4.92842139D-03
 Quartic linear search produced a step of  0.35564.
 Maximum step size (   0.849) exceeded in Quadratic search.
    -- Step size scaled by   0.817
 TrRot=  0.048907 -0.084363  0.002601  0.378147  0.010883 -0.386835
 Variable       Old X    -DE/DX   Delta X   Delta X   Delta X     New X
                                 (Linear)    (Quad)   (Total)
    X1       -3.55378  -0.00278  -0.00728   0.23260   0.31745  -3.23633
    Y1        4.57841  -0.00527  -0.02878  -0.25599  -0.33807   4.24034
    Z1        0.29741   0.00842   0.04600   0.22245   0.28693   0.58435
    X2       -4.64333   0.00178   0.04452  -0.11416   0.00948  -4.63384
    Y2        3.08906   0.00431  -0.05695  -0.04411  -0.14297   2.94609
    Z2        0.32634  -0.00206   0.03024   0.02906   0.09712   0.42345
    X3       -3.77686   0.00063   0.02048  -0.19803  -0.06109  -3.83794
    Y3        5.51933   0.00003  -0.05411  -0.03503  -0.13132   5.38801
    Z3        1.86859  -0.00446   0.05467   0.06764   0.14236   2.01095
    X4       -2.37981   0.00958  -0.04136   0.16618   0.22943  -2.15038
    Y4        0.27529  -0.00375   0.06541   0.06511   0.08643   0.36172
    Z4        5.31937  -0.02623  -0.06000  -0.11947  -0.15612   5.16325
    X5       -2.60388   0.00029  -0.02826  -0.25753  -0.20197  -2.80585
    Y5       -1.44263   0.01154   0.04301   0.24912   0.25071  -1.19192
    Z5        4.61729   0.00947  -0.01703  -0.18819  -0.16903   4.44826
    X6       -1.33733  -0.00950   0.01191  -0.40709  -0.29331  -1.63064
    Y6        1.24582  -0.00687   0.03143   0.29758   0.27522   1.52104
    Z6        4.08693   0.01487  -0.05389  -0.16074  -0.20126   3.88567
         Item               Value     Threshold  Converged?
 Maximum Force            0.026227     0.000450     NO 
 RMS     Force            0.009213     0.000300     NO 
 Maximum Displacement     0.338075     0.001800     NO 
 RMS     Displacement     0.209177     0.001200     NO 
 Predicted change in Energy=-8.246285D-03
 GradGradGradGradGradGradGradGradGradGradGradGradGradGradGradGradGradGrad

                          Input orientation:                          
 ---------------------------------------------------------------------
 Center     Atomic      Atomic             Coordinates (Angstroms)
 Number     Number       Type             X           Y           Z
 ---------------------------------------------------------------------
      1          8           0       -1.712590    2.243890    0.309222
      2          1           0       -2.452125    1.559005    0.224082
      3          1           0       -2.030953    2.851213    1.064147
      4          8           0       -1.137930    0.191415    2.732276
      5          1           0       -1.484794   -0.630737    2.353915
      6          1           0       -0.862899    0.804899    2.056209
 ---------------------------------------------------------------------
                    Distance matrix (angstroms):
                    1          2          3          4          5
     1  O    0.000000
     2  H    1.011548   0.000000
     3  H    1.019857   1.597779   0.000000
     4  O    3.227084   3.144589   3.264149   0.000000
     5  H    3.534988   3.204199   3.753102   0.969230   0.000000
     6  H    2.417567   2.539882   2.556548   0.953452   1.592619
                    6
     6  H    0.000000
 Stoichiometry    H4O2
 Framework group  C1[X(H4O2)]
 Deg. of freedom    12
 Full point group                 C1      NOp   1
 Largest Abelian subgroup         C1      NOp   1
 Largest concise Abelian subgroup C1      NOp   1
                         Standard orientation:                         
 ---------------------------------------------------------------------
 Center     Atomic      Atomic             Coordinates (Angstroms)
 Number     Number       Type             X           Y           Z
 ---------------------------------------------------------------------
      1          8           0       -1.595713    0.005605    0.106132
      2          1           0       -1.349751    0.851951   -0.390284
      3          1           0       -1.523590   -0.721747   -0.605110
      4          8           0        1.627076   -0.094126   -0.027125
      5          1           0        1.833696    0.852824   -0.026205
      6          1           0        0.788747   -0.274860    0.389541
 ---------------------------------------------------------------------
 Rotational constants (GHZ):    168.4007339      5.4850532      5.4058077
 Standard basis: SDDAll (6D, 10F)
 There are    30 symmetry adapted cartesian basis functions of A   symmetry.
 There are    30 symmetry adapted basis functions of A   symmetry.
    30 basis functions,    54 primitive gaussians,    30 cartesian basis functions
     8 alpha electrons        8 beta electrons
       nuclear repulsion energy        24.3401355197 Hartrees.
 NAtoms=    6 NActive=    6 NUniq=    6 SFac= 1.00D+00 NAtFMM=   60 NAOKFM=F Big=F
 Integral buffers will be    131072 words long.
 Raffenetti 2 integral format.
 Two-electron integral symmetry is turned on.
 One-electron integrals computed using PRISM.
   1 Symmetry operations used in ECPInt.
 ECPInt:  NShTT=     171 NPrTT=     619 LenC2=     172 LenP2D=     559.
 LDataN:  DoStor=T MaxTD1= 4 Len=   56
 NBasis=    30 RedAO= T EigKep=  5.37D-02  NBF=    30
 NBsUse=    30 1.00D-06 EigRej= -1.00D+00 NBFU=    30
 Initial guess from the checkpoint file:  "/tmp/Gau-8707.chk"
 B after Tr=     0.000000    0.000000    0.000000
         Rot=    0.999671   -0.025649   -0.000431   -0.000355 Ang=  -2.94 deg.
 ExpMin= 7.02D-02 ExpMax= 4.71D+01 ExpMxC= 4.71D+01 IAcc=2 IRadAn=         4 AccDes= 0.00D+00
 Harris functional with IExCor= 1009 and IRadAn=       4 diagonalized for initial guess.
 HarFok:  IExCor= 1009 AccDes= 0.00D+00 IRadAn=         4 IDoV= 1 UseB2=F ITyADJ=14
 ICtDFT=  3500011 ScaDFX=  1.000000  1.000000  1.000000  1.000000
 FoFCou: FMM=F IPFlag=           0 FMFlag=      100000 FMFlg1=           0
         NFxFlg=           0 DoJE=T BraDBF=F KetDBF=T FulRan=T
         wScrn=  0.000000 ICntrl=     500 IOpCl=  0 I1Cent=   200000004 NGrid=           0
         NMat0=    1 NMatS0=      1 NMatT0=    0 NMatD0=    1 NMtDS0=    0 NMtDT0=    0
 Petite list used in FoFCou.
 Keep R1 ints in memory in canonical form, NReq=1237769.
 Requested convergence on RMS density matrix=1.00D-08 within 512 cycles.
 Requested convergence on MAX density matrix=1.00D-06.
 Requested convergence on             energy=1.00D-06.
 No special actions if energy rises.
 Integral accuracy reduced to 1.0D-05 until final iterations.
 Initial convergence to 1.0D-05 achieved.  Increase integral accuracy.
 SCF Done:  E(RPBE1PBE) =  -34.3998413526     A.U. after   12 cycles
            NFock= 12  Conv=0.49D-08     -V/T= 2.2744
   1 Symmetry operations used in ECPInt.
 ECPInt:  NShTT=     171 NPrTT=     619 LenC2=     172 LenP2D=     559.
 LDataN:  DoStor=T MaxTD1= 5 Len=  102
 Calling FoFJK, ICntrl=      2127 FMM=F ISym2X=0 I1Cent= 0 IOpClX= 0 NMat=1 NMatS=1 NMatT=0.
 ***** Axes restored to original set *****
 -------------------------------------------------------------------
 Center     Atomic                   Forces (Hartrees/Bohr)
 Number     Number              X              Y              Z
 -------------------------------------------------------------------
      1        8          -0.039292348   -0.003939382    0.033979470
      2        1           0.022881565    0.018089353   -0.004416794
      3        1           0.015845200   -0.015249257   -0.027157198
      4        8          -0.008212986   -0.011143749    0.013028902
      5        1           0.001799544   -0.000177181    0.000497226
      6        1           0.006979024    0.012420216   -0.015931606
 -------------------------------------------------------------------
 Cartesian Forces:  Max     0.039292348 RMS     0.017681007

 GradGradGradGradGradGradGradGradGradGradGradGradGradGradGradGradGradGrad
 Berny optimization.
 Search for a local minimum.
 Step number   4 out of a maximum of  100
 All quantities printed in internal units (Hartrees-Bohrs-Radians)
 Update second derivatives using D2CorN and points    2    3
 DE=  1.21D-03 DEPred=-8.25D-03 R=-1.46D-01
 Trust test=-1.46D-01 RLast= 8.87D-01 DXMaxT set to 4.24D-01
 The second derivative matrix:
                          X1        Y1        Z1        X2        Y2
           X1           0.19735
           Y1           0.22315   0.45625
           Z1          -0.10914   0.13957   0.46383
           X2          -0.17577  -0.22945   0.04238   0.16949
           Y2          -0.21558  -0.33489   0.01961   0.22670   0.34336
           Z2           0.05965   0.06090  -0.05830  -0.03552  -0.02811
           X3          -0.03330   0.00671   0.07211   0.01397  -0.00648
           Y3           0.00029  -0.12363  -0.16072  -0.00121  -0.00920
           Z3           0.04712  -0.19794  -0.40697  -0.00672   0.00666
           X4          -0.00474   0.00354  -0.00296   0.00422   0.00388
           Y4           0.00243  -0.00075   0.00032  -0.00327  -0.00217
           Z4           0.00036  -0.00935   0.01249   0.00223  -0.00292
           X5           0.00594  -0.00026  -0.00267  -0.00441  -0.00170
           Y5          -0.00568   0.00560  -0.00479   0.00350   0.00302
           Z5           0.00166   0.00270  -0.00467  -0.00143   0.00076
           X6           0.00977  -0.00375   0.00071  -0.00699  -0.00642
           Y6          -0.00175  -0.00234   0.00435   0.00174  -0.00163
           Z6          -0.00097   0.00402  -0.00560  -0.00002   0.00470
                          Z2        X3        Y3        Z3        X4
           Z2           0.04498
           X3          -0.02489   0.02319
           Y3          -0.03224  -0.00313   0.13458
           Z3           0.01310  -0.04605   0.19332   0.39475
           X4          -0.00126   0.00196  -0.00067  -0.00451   0.10249
           Y4           0.00023  -0.00116   0.00144   0.00227   0.19276
           Z4           0.00316  -0.00011  -0.00560   0.00409  -0.09519
           X5           0.00011  -0.00223   0.00253   0.00229  -0.02570
           Y5          -0.00169   0.00236   0.00034  -0.00423  -0.08880
           Z5          -0.00089  -0.00054   0.00215  -0.00087  -0.04108
           X6           0.00186  -0.00338   0.00192   0.00744  -0.07787
           Y6           0.00111   0.00084  -0.00244   0.00158  -0.11211
           Z6          -0.00214  -0.00011   0.00259  -0.00487   0.14566
                          Y4        Z4        X5        Y5        Z5
           Y4           0.55083
           Z4           0.02580   0.45214
           X5          -0.08290  -0.02972   0.02768
           Y5          -0.35413  -0.16896   0.09398   0.35735
           Z5          -0.22457  -0.18144   0.03965   0.19220   0.15776
           X6          -0.10808   0.12200  -0.00132  -0.00502   0.00192
           Y6          -0.19435   0.16275  -0.01153  -0.01348   0.02606
           Z6           0.19555  -0.29124  -0.00972  -0.01192   0.03044
                          X6        Y6        Z6
           X6           0.07946
           Y6           0.12264   0.21487
           Z6          -0.13454  -0.19614   0.27397
 ITU= -1  1  1  0
 Energy rises -- skip Quadratic search.
 Quartic linear search produced a step of -0.60511.
 TrRot=  0.000000  0.000000  0.000000  0.000000  0.000000  0.000000
 Variable       Old X    -DE/DX   Delta X   Delta X   Delta X     New X
                                 (Linear)    (Quad)   (Total)
    X1       -3.23633  -0.03929  -0.19210   0.00000  -0.19210  -3.42842
    Y1        4.24034  -0.00394   0.20457   0.00000   0.20457   4.44491
    Z1        0.58435   0.03398  -0.17363   0.00000  -0.17363   0.41072
    X2       -4.63384   0.02288  -0.00574   0.00000  -0.00574  -4.63958
    Y2        2.94609   0.01809   0.08651   0.00000   0.08651   3.03260
    Z2        0.42345  -0.00442  -0.05877   0.00000  -0.05877   0.36469
    X3       -3.83794   0.01585   0.03697   0.00000   0.03697  -3.80098
    Y3        5.38801  -0.01525   0.07946   0.00000   0.07946   5.46747
    Z3        2.01095  -0.02716  -0.08614   0.00000  -0.08614   1.92480
    X4       -2.15038  -0.00821  -0.13883   0.00000  -0.13883  -2.28921
    Y4        0.36172  -0.01114  -0.05230   0.00000  -0.05230   0.30942
    Z4        5.16325   0.01303   0.09447   0.00000   0.09447   5.25772
    X5       -2.80585   0.00180   0.12222   0.00000   0.12222  -2.68364
    Y5       -1.19192  -0.00018  -0.15171   0.00000  -0.15171  -1.34363
    Z5        4.44826   0.00050   0.10229   0.00000   0.10229   4.55054
    X6       -1.63064   0.00698   0.17749   0.00000   0.17749  -1.45316
    Y6        1.52104   0.01242  -0.16654   0.00000  -0.16654   1.35450
    Z6        3.88567  -0.01593   0.12178   0.00000   0.12178   4.00746
         Item               Value     Threshold  Converged?
 Maximum Force            0.039292     0.000450     NO 
 RMS     Force            0.017681     0.000300     NO 
 Maximum Displacement     0.204574     0.001800     NO 
 RMS     Displacement     0.126576     0.001200     NO 
 Predicted change in Energy=-4.559525D-03
 GradGradGradGradGradGradGradGradGradGradGradGradGradGradGradGradGradGrad

                          Input orientation:                          
 ---------------------------------------------------------------------
 Center     Atomic      Atomic             Coordinates (Angstroms)
 Number     Number       Type             X           Y           Z
 ---------------------------------------------------------------------
      1          8           0       -1.814242    2.352146    0.217343
      2          1           0       -2.455161    1.604784    0.192984
      3          1           0       -2.011392    2.893263    1.018562
      4          8           0       -1.211398    0.163740    2.782266
      5          1           0       -1.420120   -0.711019    2.408042
      6          1           0       -0.768978    0.716771    2.120655
 ---------------------------------------------------------------------
                    Distance matrix (angstroms):
                    1          2          3          4          5
     1  O    0.000000
     2  H    0.984845   0.000000
     3  H    0.986726   1.593326   0.000000
     4  O    3.425109   3.213711   3.346780   0.000000
     5  H    3.786486   3.367602   3.907826   0.974070   0.000000
     6  H    2.718386   2.710664   2.737757   0.969180   1.595357
                    6
     6  H    0.000000
 Stoichiometry    H4O2
 Framework group  C1[X(H4O2)]
 Deg. of freedom    12
 Full point group                 C1      NOp   1
 Largest Abelian subgroup         C1      NOp   1
 Largest concise Abelian subgroup C1      NOp   1
                         Standard orientation:                         
 ---------------------------------------------------------------------
 Center     Atomic      Atomic             Coordinates (Angstroms)
 Number     Number       Type             X           Y           Z
 ---------------------------------------------------------------------
      1          8           0       -1.712700    0.016454    0.085727
      2          1           0       -1.358800    0.810390   -0.377242
      3          1           0       -1.540252   -0.768807   -0.486335
      4          8           0        1.708048   -0.092077   -0.048707
      5          1           0        1.983163    0.838435    0.036565
      6          1           0        0.953105   -0.275037    0.530857
 ---------------------------------------------------------------------
 Rotational constants (GHZ):    171.9984114      4.8803034      4.8168570
 Standard basis: SDDAll (6D, 10F)
 There are    30 symmetry adapted cartesian basis functions of A   symmetry.
 There are    30 symmetry adapted basis functions of A   symmetry.
    30 basis functions,    54 primitive gaussians,    30 cartesian basis functions
     8 alpha electrons        8 beta electrons
       nuclear repulsion energy        23.8273606807 Hartrees.
 NAtoms=    6 NActive=    6 NUniq=    6 SFac= 1.00D+00 NAtFMM=   60 NAOKFM=F Big=F
 Integral buffers will be    131072 words long.
 Raffenetti 2 integral format.
 Two-electron integral symmetry is turned on.
 One-electron integrals computed using PRISM.
   1 Symmetry operations used in ECPInt.
 ECPInt:  NShTT=     171 NPrTT=     619 LenC2=     172 LenP2D=     557.
 LDataN:  DoStor=T MaxTD1= 4 Len=   56
 NBasis=    30 RedAO= T EigKep=  5.75D-02  NBF=    30
 NBsUse=    30 1.00D-06 EigRej= -1.00D+00 NBFU=    30
 Lowest energy guess from the checkpoint file:  "/tmp/Gau-8707.chk"
 B after Tr=     0.000000    0.000000    0.000000
         Rot=    0.999964   -0.008449    0.000045   -0.000079 Ang=  -0.97 deg.
 B after Tr=     0.000000    0.000000    0.000000
         Rot=    0.999850    0.017328    0.000477    0.000277 Ang=   1.99 deg.
 Keep R1 ints in memory in canonical form, NReq=1237769.
 Requested convergence on RMS density matrix=1.00D-08 within 512 cycles.
 Requested convergence on MAX density matrix=1.00D-06.
 Requested convergence on             energy=1.00D-06.
 No special actions if energy rises.
 Integral accuracy reduced to 1.0D-05 until final iterations.
 Initial convergence to 1.0D-05 achieved.  Increase integral accuracy.
 SCF Done:  E(RPBE1PBE) =  -34.4022330890     A.U. after   10 cycles
            NFock= 10  Conv=0.45D-08     -V/T= 2.2711
   1 Symmetry operations used in ECPInt.
 ECPInt:  NShTT=     171 NPrTT=     619 LenC2=     172 LenP2D=     557.
 LDataN:  DoStor=T MaxTD1= 5 Len=  102
 Calling FoFJK, ICntrl=      2127 FMM=F ISym2X=0 I1Cent= 0 IOpClX= 0 NMat=1 NMatS=1 NMatT=0.
 ***** Axes restored to original set *****
 -------------------------------------------------------------------
 Center     Atomic                   Forces (Hartrees/Bohr)
 Number     Number              X              Y              Z
 -------------------------------------------------------------------
      1        8          -0.010865459   -0.005813174    0.016462260
      2        1           0.006744081    0.008616131   -0.003056382
      3        1           0.003760311   -0.003830737   -0.011336014
      4        8          -0.003961506   -0.003804604   -0.002856229
      5        1           0.001512885    0.002375662    0.002990184
      6        1           0.002809687    0.002456721   -0.002203820
 -------------------------------------------------------------------
 Cartesian Forces:  Max     0.016462260 RMS     0.006596404

 GradGradGradGradGradGradGradGradGradGradGradGradGradGradGradGradGradGrad
 Berny optimization.
 Search for a local minimum.
 Step number   5 out of a maximum of  100
 All quantities printed in internal units (Hartrees-Bohrs-Radians)
 Update second derivatives using D2CorN and points    3    5
 The second derivative matrix:
                          X1        Y1        Z1        X2        Y2
           X1           0.20861
           Y1           0.21768   0.45513
           Z1          -0.10848   0.14476   0.45582
           X2          -0.17872  -0.22611   0.03943   0.16931
           Y2          -0.22151  -0.33152   0.01854   0.22801   0.34641
           Z2           0.06260   0.05975  -0.05854  -0.03644  -0.02970
           X3          -0.03632   0.00867   0.07121   0.01452  -0.00496
           Y3          -0.00053  -0.12546  -0.15752   0.00012  -0.00848
           Z3           0.05408  -0.20243  -0.40494  -0.00798   0.00314
           X4           0.00569  -0.00286  -0.00041   0.00215  -0.00144
           Y4           0.00516  -0.00188   0.00020  -0.00408  -0.00363
           Z4          -0.01044  -0.00106   0.00741   0.00352   0.00237
           X5           0.00102   0.00083  -0.00106  -0.00247   0.00106
           Y5           0.00198   0.00259  -0.00538   0.00114  -0.00111
           Z5          -0.00028   0.00129  -0.00136   0.00026   0.00209
           X6          -0.00102   0.00172  -0.00025  -0.00428  -0.00077
           Y6           0.00007   0.00138  -0.00226  -0.00105  -0.00319
           Z6           0.00120  -0.00242   0.00239   0.00213   0.00426
                          Z2        X3        Y3        Z3        X4
           Z2           0.04573
           X3          -0.02572   0.02394
           Y3          -0.03229  -0.00262   0.13333
           Z3           0.01501  -0.04778   0.19216   0.39873
           X4           0.00158  -0.00066  -0.00221   0.00155   0.11169
           Y4           0.00093  -0.00192   0.00135   0.00402   0.19535
           Z4           0.00010   0.00239  -0.00302  -0.00170  -0.10413
           X5          -0.00108  -0.00073   0.00213  -0.00114  -0.03072
           Y5           0.00026   0.00021   0.00020   0.00072  -0.08145
           Z5          -0.00122   0.00029   0.00090  -0.00276  -0.04371
           X6          -0.00099  -0.00052   0.00283   0.00083  -0.08780
           Y6           0.00124  -0.00025   0.00014   0.00405  -0.10881
           Z6          -0.00117   0.00002  -0.00074  -0.00511   0.14577
                          Y4        Z4        X5        Y5        Z5
           Y4           0.55148
           Z4           0.02302   0.46004
           X5          -0.08403  -0.02395   0.02939
           Y5          -0.35231  -0.17688   0.09087   0.36243
           Z5          -0.22492  -0.17769   0.03969   0.19132   0.15663
           X6          -0.11071   0.13217   0.00348  -0.01240   0.00393
           Y6          -0.19415   0.15729  -0.01075  -0.01311   0.02860
           Z6           0.19635  -0.28896  -0.01252  -0.00943   0.02672
                          X6        Y6        Z6
           X6           0.08979
           Y6           0.12062   0.20956
           Z6          -0.13629  -0.18922   0.26670
 ITU=  0 -1  1  1  0
     Eigenvalues ---   -0.00047   0.00000   0.00000   0.00379   0.02267
     Eigenvalues ---    0.03076   0.13982   0.14404   0.81872   0.85294
     Eigenvalues ---    0.95960   1.00469
 RFO step:  Lambda=-3.16199838D-03 EMin=-4.71993082D-04
 Quartic linear search produced a step of -0.05115.
 Maximum step size (   0.424) exceeded in Quadratic search.
    -- Step size scaled by   0.401
 TrRot=  0.010936 -0.002111  0.031991 -0.074879 -0.012154  0.075439
 Variable       Old X    -DE/DX   Delta X   Delta X   Delta X     New X
                                 (Linear)    (Quad)   (Total)
    X1       -3.42842  -0.01087  -0.00641   0.02018   0.01671  -3.41171
    Y1        4.44491  -0.00581   0.00683  -0.10143  -0.09820   4.34671
    Z1        0.41072   0.01646  -0.00580   0.07619   0.05698   0.46770
    X2       -4.63958   0.00674  -0.00019  -0.03352  -0.03022  -4.66980
    Y2        3.03260   0.00862   0.00289  -0.04091  -0.04232   2.99028
    Z2        0.36469  -0.00306  -0.00196   0.14299   0.11360   0.47829
    X3       -3.80098   0.00376   0.00123   0.17167   0.15714  -3.64384
    Y3        5.46747  -0.00383   0.00265  -0.06673  -0.06644   5.40103
    Z3        1.92480  -0.01134  -0.00288   0.05598   0.03603   1.96083
    X4       -2.28921  -0.00396  -0.00463  -0.11751  -0.17374  -2.46295
    Y4        0.30942  -0.00380  -0.00175   0.09598   0.09545   0.40487
    Z4        5.25772  -0.00286   0.00315  -0.10478  -0.09962   5.15811
    X5       -2.68364   0.00151   0.00408   0.19460   0.15608  -2.52756
    Y5       -1.34363   0.00238  -0.00506   0.00235  -0.00214  -1.34578
    Z5        4.55054   0.00299   0.00341  -0.05991  -0.05371   4.49683
    X6       -1.45316   0.00281   0.00592  -0.09434  -0.12597  -1.57912
    Y6        1.35450   0.00246  -0.00556   0.11863   0.11367   1.46817
    Z6        4.00746  -0.00220   0.00407  -0.06901  -0.05328   3.95418
         Item               Value     Threshold  Converged?
 Maximum Force            0.016462     0.000450     NO 
 RMS     Force            0.006596     0.000300     NO 
 Maximum Displacement     0.173744     0.001800     NO 
 RMS     Displacement     0.096403     0.001200     NO 
 Predicted change in Energy=-1.468211D-03
 GradGradGradGradGradGradGradGradGradGradGradGradGradGradGradGradGradGrad

                          Input orientation:                          
 ---------------------------------------------------------------------
 Center     Atomic      Atomic             Coordinates (Angstroms)
 Number     Number       Type             X           Y           Z
 ---------------------------------------------------------------------
      1          8           0       -1.805401    2.300178    0.247495
      2          1           0       -2.471153    1.582389    0.253098
      3          1           0       -1.928237    2.858102    1.037626
      4          8           0       -1.303339    0.214249    2.729552
      5          1           0       -1.337525   -0.712154    2.379618
      6          1           0       -0.835636    0.776921    2.092462
 ---------------------------------------------------------------------
                    Distance matrix (angstroms):
                    1          2          3          4          5
     1  O    0.000000
     2  H    0.979018   0.000000
     3  H    0.975025   1.593011   0.000000
     4  O    3.280819   3.060787   3.200480   0.000000
     5  H    3.720080   3.327480   3.859612   0.990880   0.000000
     6  H    2.581600   2.589779   2.576387   0.970170   1.597402
                    6
     6  H    0.000000
 Stoichiometry    H4O2
 Framework group  C1[X(H4O2)]
 Deg. of freedom    12
 Full point group                 C1      NOp   1
 Largest Abelian subgroup         C1      NOp   1
 Largest concise Abelian subgroup C1      NOp   1
                         Standard orientation:                         
 ---------------------------------------------------------------------
 Center     Atomic      Atomic             Coordinates (Angstroms)
 Number     Number       Type             X           Y           Z
 ---------------------------------------------------------------------
      1          8           0       -1.645125    0.029789    0.081659
      2          1           0       -1.281831    0.767906   -0.449074
      3          1           0       -1.471761   -0.812166   -0.378483
      4          8           0        1.630321   -0.091099   -0.061908
      5          1           0        1.992096    0.808068    0.144151
      6          1           0        0.879925   -0.273329    0.525397
 ---------------------------------------------------------------------
 Rotational constants (GHZ):    175.2954515      5.3052000      5.2320905
 Standard basis: SDDAll (6D, 10F)
 There are    30 symmetry adapted cartesian basis functions of A   symmetry.
 There are    30 symmetry adapted basis functions of A   symmetry.
    30 basis functions,    54 primitive gaussians,    30 cartesian basis functions
     8 alpha electrons        8 beta electrons
       nuclear repulsion energy        24.2651620441 Hartrees.
 NAtoms=    6 NActive=    6 NUniq=    6 SFac= 1.00D+00 NAtFMM=   60 NAOKFM=F Big=F
 Integral buffers will be    131072 words long.
 Raffenetti 2 integral format.
 Two-electron integral symmetry is turned on.
 One-electron integrals computed using PRISM.
   1 Symmetry operations used in ECPInt.
 ECPInt:  NShTT=     171 NPrTT=     619 LenC2=     172 LenP2D=     557.
 LDataN:  DoStor=T MaxTD1= 4 Len=   56
 NBasis=    30 RedAO= T EigKep=  5.70D-02  NBF=    30
 NBsUse=    30 1.00D-06 EigRej= -1.00D+00 NBFU=    30
 Initial guess from the checkpoint file:  "/tmp/Gau-8707.chk"
 B after Tr=     0.000000    0.000000    0.000000
         Rot=    0.999880    0.015396    0.000361    0.001857 Ang=   1.78 deg.
 ExpMin= 7.02D-02 ExpMax= 4.71D+01 ExpMxC= 4.71D+01 IAcc=2 IRadAn=         4 AccDes= 0.00D+00
 Harris functional with IExCor= 1009 and IRadAn=       4 diagonalized for initial guess.
 HarFok:  IExCor= 1009 AccDes= 0.00D+00 IRadAn=         4 IDoV= 1 UseB2=F ITyADJ=14
 ICtDFT=  3500011 ScaDFX=  1.000000  1.000000  1.000000  1.000000
 FoFCou: FMM=F IPFlag=           0 FMFlag=      100000 FMFlg1=           0
         NFxFlg=           0 DoJE=T BraDBF=F KetDBF=T FulRan=T
         wScrn=  0.000000 ICntrl=     500 IOpCl=  0 I1Cent=   200000004 NGrid=           0
         NMat0=    1 NMatS0=      1 NMatT0=    0 NMatD0=    1 NMtDS0=    0 NMtDT0=    0
 Petite list used in FoFCou.
 Keep R1 ints in memory in canonical form, NReq=1237769.
 Requested convergence on RMS density matrix=1.00D-08 within 512 cycles.
 Requested convergence on MAX density matrix=1.00D-06.
 Requested convergence on             energy=1.00D-06.
 No special actions if energy rises.
 Integral accuracy reduced to 1.0D-05 until final iterations.
 Initial convergence to 1.0D-05 achieved.  Increase integral accuracy.
 SCF Done:  E(RPBE1PBE) =  -34.4031044634     A.U. after   11 cycles
            NFock= 11  Conv=0.54D-08     -V/T= 2.2709
   1 Symmetry operations used in ECPInt.
 ECPInt:  NShTT=     171 NPrTT=     619 LenC2=     172 LenP2D=     557.
 LDataN:  DoStor=T MaxTD1= 5 Len=  102
 Calling FoFJK, ICntrl=      2127 FMM=F ISym2X=0 I1Cent= 0 IOpClX= 0 NMat=1 NMatS=1 NMatT=0.
 ***** Axes restored to original set *****
 -------------------------------------------------------------------
 Center     Atomic                   Forces (Hartrees/Bohr)
 Number     Number              X              Y              Z
 -------------------------------------------------------------------
      1        8          -0.003970590   -0.007191731    0.007856560
      2        1           0.003567085    0.005822866   -0.001829806
      3        1          -0.000042381    0.000586384   -0.003660391
      4        8          -0.002813159   -0.018181350   -0.009023754
      5        1           0.000561045    0.015614723    0.008796539
      6        1           0.002698001    0.003349108   -0.002139147
 -------------------------------------------------------------------
 Cartesian Forces:  Max     0.018181350 RMS     0.007293158

 GradGradGradGradGradGradGradGradGradGradGradGradGradGradGradGradGradGrad
 Berny optimization.
 Search for a local minimum.
 Step number   6 out of a maximum of  100
 All quantities printed in internal units (Hartrees-Bohrs-Radians)
 Update second derivatives using D2CorN and points    4    5    6
 DE= -8.71D-04 DEPred=-1.47D-03 R= 5.93D-01
 TightC=F SS=  1.41D+00  RLast= 4.09D-01 DXNew= 7.1352D-01 1.2270D+00
 Trust test= 5.93D-01 RLast= 4.09D-01 DXMaxT set to 7.14D-01
 The second derivative matrix:
                          X1        Y1        Z1        X2        Y2
           X1           0.22183
           Y1           0.21247   0.45431
           Z1          -0.10815   0.14764   0.44977
           X2          -0.18138  -0.22369   0.03581   0.16818
           Y2          -0.22506  -0.33013   0.01835   0.22909   0.34774
           Z2           0.06148   0.06075  -0.05729  -0.03603  -0.03009
           X3          -0.04569   0.01280   0.07349   0.01692  -0.00354
           Y3           0.00172  -0.12764  -0.15506   0.00157  -0.00859
           Z3           0.05978  -0.20449  -0.40389  -0.00852   0.00157
           X4           0.01342  -0.00392  -0.00958  -0.00380  -0.00222
           Y4           0.00277  -0.00395   0.00213  -0.00558  -0.00525
           Z4          -0.01029  -0.00456   0.00911   0.00332   0.00187
           X5          -0.00785   0.00318   0.00568   0.00248   0.00232
           Y5           0.00857   0.00489  -0.01041  -0.00055  -0.00113
           Z5          -0.00189   0.00263  -0.00067   0.00247   0.00357
           X6          -0.00108  -0.00091   0.00318  -0.00189  -0.00020
           Y6           0.00240   0.00276  -0.00430  -0.00282  -0.00416
           Z6          -0.00227  -0.00208   0.00375   0.00386   0.00543
                          Z2        X3        Y3        Z3        X4
           Z2           0.04605
           X3          -0.02450   0.03130
           Y3          -0.03380  -0.00652   0.13329
           Z3           0.01396  -0.05270   0.19271   0.40077
           X4           0.00210  -0.00391   0.00446   0.00717   0.10291
           Y4           0.00686   0.00842  -0.00258   0.00411   0.18411
           Z4           0.00271   0.00595  -0.00429  -0.00061  -0.10799
           X5          -0.00114   0.00405  -0.00354  -0.00677  -0.02608
           Y5          -0.00467  -0.01067   0.00560   0.00288  -0.07401
           Z5          -0.00413  -0.00332   0.00158  -0.00427  -0.03740
           X6          -0.00195  -0.00242   0.00202   0.00061  -0.08219
           Y6           0.00111  -0.00144   0.00104   0.00487  -0.10971
           Z6          -0.00137   0.00153  -0.00166  -0.00673   0.14632
                          Y4        Z4        X5        Y5        Z5
           Y4           0.56115
           Z4           0.02082   0.45505
           X5          -0.07365  -0.02035   0.02810
           Y5          -0.35853  -0.17271   0.08247   0.36537
           Z5          -0.22906  -0.17687   0.03470   0.19389   0.15849
           X6          -0.11628   0.12891  -0.00069  -0.00548   0.00563
           Y6          -0.19000   0.16061  -0.01076  -0.01747   0.02669
           Z6           0.19475  -0.29020  -0.01213  -0.00838   0.02778
                          X6        Y6        Z6
           X6           0.08793
           Y6           0.12217   0.20843
           Z6          -0.13699  -0.18926   0.26733
 ITU=  1  0 -1  1  1  0
     Eigenvalues ---   -0.00079  -0.00002   0.00188   0.00634   0.01798
     Eigenvalues ---    0.04040   0.13979   0.14423   0.82226   0.85447
     Eigenvalues ---    0.96208   1.00502
 RFO step:  Lambda=-3.24867314D-03 EMin=-7.90064993D-04
 Quartic linear search produced a step of -0.08352.
 Maximum step size (   0.714) exceeded in Quadratic search.
    -- Step size scaled by   0.628
 TrRot= -0.002560 -0.048783  0.022383 -0.402893 -0.007825  0.401691
 Variable       Old X    -DE/DX   Delta X   Delta X   Delta X     New X
                                 (Linear)    (Quad)   (Total)
    X1       -3.41171  -0.00397  -0.00140   0.01249   0.00974  -3.40197
    Y1        4.34671  -0.00719   0.00820  -0.18745  -0.22232   4.12438
    Z1        0.46770   0.00786  -0.00476   0.08371   0.06408   0.53177
    X2       -4.66980   0.00357   0.00252   0.03839   0.03610  -4.63370
    Y2        2.99028   0.00582   0.00353  -0.15038  -0.18765   2.80263
    Z2        0.47829  -0.00183  -0.00949   0.33948   0.31031   0.78860
    X3       -3.64384  -0.00004  -0.01312   0.07041   0.04790  -3.59594
    Y3        5.40103   0.00059   0.00555   0.08939   0.05620   5.45722
    Z3        1.96083  -0.00366  -0.00301  -0.06957  -0.09290   1.86793
    X4       -2.46295  -0.00281   0.01451  -0.09368  -0.11754  -2.58050
    Y4        0.40487  -0.01818  -0.00797   0.03544  -0.00278   0.40209
    Z4        5.15811  -0.00902   0.00832  -0.11019  -0.09928   5.05883
    X5       -2.52756   0.00056  -0.01304  -0.05842  -0.10502  -2.63258
    Y5       -1.34578   0.01561   0.00018   0.22468   0.19184  -1.15394
    Z5        4.49683   0.00880   0.00449  -0.37364  -0.36218   4.13464
    X6       -1.57912   0.00270   0.01052   0.14851   0.12882  -1.45030
    Y6        1.46817   0.00335  -0.00949   0.20865   0.16472   1.63289
    Z6        3.95418  -0.00214   0.00445   0.16860   0.17998   4.13416
         Item               Value     Threshold  Converged?
 Maximum Force            0.018181     0.000450     NO 
 RMS     Force            0.007293     0.000300     NO 
 Maximum Displacement     0.362184     0.001800     NO 
 RMS     Displacement     0.163186     0.001200     NO 
 Predicted change in Energy=-2.200465D-03
 GradGradGradGradGradGradGradGradGradGradGradGradGradGradGradGradGradGrad

                          Input orientation:                          
 ---------------------------------------------------------------------
 Center     Atomic      Atomic             Coordinates (Angstroms)
 Number     Number       Type             X           Y           Z
 ---------------------------------------------------------------------
      1          8           0       -1.800246    2.182529    0.281403
      2          1           0       -2.452048    1.483087    0.417310
      3          1           0       -1.902891    2.887839    0.988464
      4          8           0       -1.365539    0.212779    2.677016
      5          1           0       -1.393101   -0.610636    2.187958
      6          1           0       -0.767467    0.864088    2.187701
 ---------------------------------------------------------------------
                    Distance matrix (angstroms):
                    1          2          3          4          5
     1  O    0.000000
     2  H    0.965679   0.000000
     3  H    1.003958   1.612798   0.000000
     4  O    3.131748   2.810775   3.208723   0.000000
     5  H    3.406243   2.939429   3.733363   0.958096   0.000000
     6  H    2.537497   2.520964   2.612073   1.010605   1.601946
                    6
     6  H    0.000000
 Stoichiometry    H4O2
 Framework group  C1[X(H4O2)]
 Deg. of freedom    12
 Full point group                 C1      NOp   1
 Largest Abelian subgroup         C1      NOp   1
 Largest concise Abelian subgroup C1      NOp   1
                         Standard orientation:                         
 ---------------------------------------------------------------------
 Center     Atomic      Atomic             Coordinates (Angstroms)
 Number     Number       Type             X           Y           Z
 ---------------------------------------------------------------------
      1          8           0       -1.561816    0.046895    0.082761
      2          1           0       -1.108183    0.715751   -0.445808
      3          1           0       -1.536466   -0.838158   -0.390495
      4          8           0        1.563698   -0.073598   -0.073738
      5          1           0        1.753040    0.818541    0.219837
      6          1           0        0.876550   -0.482510    0.544276
 ---------------------------------------------------------------------
 Rotational constants (GHZ):    164.0200669      5.8399970      5.7485196
 Standard basis: SDDAll (6D, 10F)
 There are    30 symmetry adapted cartesian basis functions of A   symmetry.
 There are    30 symmetry adapted basis functions of A   symmetry.
    30 basis functions,    54 primitive gaussians,    30 cartesian basis functions
     8 alpha electrons        8 beta electrons
       nuclear repulsion energy        24.6843276518 Hartrees.
[...]
           Y4           0.61474
           Z4          -0.17633   0.47557
           X5           0.18310  -0.02665   0.27559
           Y5          -0.31997  -0.02423  -0.18583   0.29354
           Z5          -0.07655  -0.11088  -0.01298   0.05345   0.06993
           X6          -0.01216   0.02483  -0.00019   0.04727  -0.02419
           Y6          -0.24676   0.17889   0.01554   0.02884   0.03437
           Z6           0.22180  -0.37992   0.04338  -0.01732   0.05268
                          X6        Y6        Z6
           X6           0.06266
           Y6          -0.02583   0.22802
           Z6           0.00724  -0.18812   0.34519
 ITU=  0  0  0  0  0  0  0 -1  1  1  1  1  1  1  1  0 -1  1  1
 Energy rises -- skip Quadratic search.
 Quartic linear search produced a step of -0.97247.
 TrRot=  0.000000  0.000000  0.000000  0.000000  0.000000  0.000000
 Variable       Old X    -DE/DX   Delta X   Delta X   Delta X     New X
                                 (Linear)    (Quad)   (Total)
    X1       -3.39720  -0.00016   0.01156   0.00000   0.01156  -3.38564
    Y1        3.74643   0.00085  -0.00699   0.00000  -0.00699   3.73943
    Z1        1.40770  -0.00042  -0.02368   0.00000  -0.02368   1.38402
    X2       -4.37372   0.00036  -0.02834   0.00000  -0.02834  -4.40206
    Y2        3.53979   0.00025   0.03149   0.00000   0.03149   3.57127
    Z2       -0.12823   0.00095  -0.00014   0.00000  -0.00014  -0.12837
    X3       -3.26259  -0.00017   0.00229   0.00000   0.00229  -3.26030
    Y3        5.50329  -0.00102  -0.02337   0.00000  -0.02337   5.47992
    Z3        1.90977  -0.00045   0.02662   0.00000   0.02662   1.93639
    X4       -2.84328  -0.00078  -0.00305   0.00000  -0.00305  -2.84633
    Y4        0.07886   0.00010   0.01299   0.00000   0.01299   0.09185
    Z4        4.95175   0.00036  -0.00432   0.00000  -0.00432   4.94744
    X5       -1.33092   0.00055   0.00018   0.00000   0.00018  -1.33073
    Y5       -0.92307  -0.00010   0.00663   0.00000   0.00663  -0.91644
    Z5        4.72873  -0.00010   0.04218   0.00000   0.04218   4.77091
    X6       -3.02087   0.00019   0.01736   0.00000   0.01736  -3.00351
    Y6        1.38433  -0.00009  -0.02075   0.00000  -0.02075   1.36359
    Z6        3.63788  -0.00034  -0.04066   0.00000  -0.04066   3.59722
         Item               Value     Threshold  Converged?
 Maximum Force            0.001015     0.000450     NO 
 RMS     Force            0.000500     0.000300     NO 
 Maximum Displacement     0.042185     0.001800     NO 
 RMS     Displacement     0.021348     0.001200     NO 
 Predicted change in Energy=-3.504302D-07
 GradGradGradGradGradGradGradGradGradGradGradGradGradGradGradGradGradGrad

                          Input orientation:                          
 ---------------------------------------------------------------------
 Center     Atomic      Atomic             Coordinates (Angstroms)
 Number     Number       Type             X           Y           Z
 ---------------------------------------------------------------------
      1          8           0       -1.791605    1.978823    0.732391
      2          1           0       -2.329470    1.889836   -0.067933
      3          1           0       -1.725279    2.899848    1.024694
      4          8           0       -1.506212    0.048605    2.618071
      5          1           0       -0.704194   -0.484962    2.524659
      6          1           0       -1.589390    0.721578    1.903566
 ---------------------------------------------------------------------
                    Distance matrix (angstroms):
                    1          2          3          4          5
     1  O    0.000000
     2  H    0.968368   0.000000
     3  H    0.968570   1.605928   0.000000
     4  O    2.713481   3.358944   3.273596   0.000000
     5  H    3.234953   3.873335   3.840501   0.967808   0.000000
     6  H    1.730089   2.408185   2.352816   0.985053   1.620206
                    6
     6  H    0.000000
 Stoichiometry    H4O2
 Framework group  C1[X(H4O2)]
 Deg. of freedom    12
 Full point group                 C1      NOp   1
 Largest Abelian subgroup         C1      NOp   1
 Largest concise Abelian subgroup C1      NOp   1
                         Standard orientation:                         
 ---------------------------------------------------------------------
 Center     Atomic      Atomic             Coordinates (Angstroms)
 Number     Number       Type             X           Y           Z
 ---------------------------------------------------------------------
      1          8           0       -1.276855    0.013683    0.052365
      2          1           0       -1.832586    0.746639   -0.250413
      3          1           0       -1.740087   -0.835746    0.007476
      4          8           0        1.431489   -0.033100   -0.107835
      5          1           0        1.883939    0.225115    0.707804
      6          1           0        0.451664    0.019331   -0.021105
 ---------------------------------------------------------------------
 Rotational constants (GHZ):    242.7373455      7.2375890      7.1773823
 Standard basis: SDDAll (6D, 10F)
 There are    30 symmetry adapted cartesian basis functions of A   symmetry.
 There are    30 symmetry adapted basis functions of A   symmetry.
    30 basis functions,    54 primitive gaussians,    30 cartesian basis functions
     8 alpha electrons        8 beta electrons
       nuclear repulsion energy        26.1884634545 Hartrees.
 NAtoms=    6 NActive=    6 NUniq=    6 SFac= 1.00D+00 NAtFMM=   60 NAOKFM=F Big=F
 Integral buffers will be    131072 words long.
 Raffenetti 2 integral format.
 Two-electron integral symmetry is turned on.
 One-electron integrals computed using PRISM.
   1 Symmetry operations used in ECPInt.
 ECPInt:  NShTT=     171 NPrTT=     619 LenC2=     172 LenP2D=     564.
 LDataN:  DoStor=T MaxTD1= 4 Len=   56
 NBasis=    30 RedAO= T EigKep=  3.44D-02  NBF=    30
 NBsUse=    30 1.00D-06 EigRej= -1.00D+00 NBFU=    30
 Lowest energy guess from the checkpoint file:  "/tmp/Gau-8707.chk"
 B after Tr=     0.000000    0.000000    0.000000
         Rot=    1.000000    0.000270    0.000011    0.000019 Ang=   0.03 deg.
 B after Tr=     0.000000    0.000000    0.000000
         Rot=    0.999951   -0.009896   -0.000389   -0.000678 Ang=  -1.14 deg.
 Keep R1 ints in memory in canonical form, NReq=1237769.
 Requested convergence on RMS density matrix=1.00D-08 within 512 cycles.
 Requested convergence on MAX density matrix=1.00D-06.
 Requested convergence on             energy=1.00D-06.
 No special actions if energy rises.
 Integral accuracy reduced to 1.0D-05 until final iterations.
 Initial convergence to 1.0D-05 achieved.  Increase integral accuracy.
 SCF Done:  E(RPBE1PBE) =  -34.4138890117     A.U. after    7 cycles
            NFock=  7  Conv=0.41D-08     -V/T= 2.2648
   1 Symmetry operations used in ECPInt.
 ECPInt:  NShTT=     171 NPrTT=     619 LenC2=     172 LenP2D=     564.
 LDataN:  DoStor=T MaxTD1= 5 Len=  102
 Calling FoFJK, ICntrl=      2127 FMM=F ISym2X=0 I1Cent= 0 IOpClX= 0 NMat=1 NMatS=1 NMatT=0.
 ***** Axes restored to original set *****
 -------------------------------------------------------------------
 Center     Atomic                   Forces (Hartrees/Bohr)
 Number     Number              X              Y              Z
 -------------------------------------------------------------------
      1        8           0.000088801    0.000268790   -0.000052712
      2        1          -0.000078724   -0.000145398    0.000088032
      3        1           0.000056011   -0.000088077   -0.000006372
      4        8          -0.000119091   -0.000036155   -0.000159804
      5        1           0.000096153    0.000052423    0.000048269
      6        1          -0.000043151   -0.000051584    0.000082587
 -------------------------------------------------------------------
 Cartesian Forces:  Max     0.000268790 RMS     0.000104251

 GradGradGradGradGradGradGradGradGradGradGradGradGradGradGradGradGradGrad
 Berny optimization.
 Search for a local minimum.
 Step number 100 out of a maximum of  100
 All quantities printed in internal units (Hartrees-Bohrs-Radians)
 Update second derivatives using D2CorN and points   83   82   84   85   86
                                                         87   88   89   90   92

                                                         91   93   95   96   97

                                                         94   99  100
 The second derivative matrix:
                          X1        Y1        Z1        X2        Y2
           X1           0.24056
           Y1           0.07410   0.49058
           Z1           0.20951   0.09853   0.45469
           X2          -0.19826  -0.09141  -0.22741   0.28111
           Y2          -0.04987  -0.13601   0.06861   0.09622   0.19852
           Z2          -0.18151  -0.07108  -0.29216   0.23371   0.03029
           X3          -0.05456  -0.00863   0.02073  -0.02384  -0.00910
           Y3          -0.04703  -0.35076  -0.18061   0.03991  -0.02148
           Z3          -0.04863  -0.04544  -0.14162   0.02454  -0.08115
           X4          -0.01323   0.01684   0.03880   0.01392   0.02471
           Y4          -0.09349  -0.06658   0.09427  -0.02160   0.09728
           Z4          -0.05269  -0.04818   0.05703   0.07987   0.06762
           X5           0.01500   0.01182  -0.03839  -0.04956  -0.04073
           Y5           0.05861   0.04863  -0.07094   0.00480  -0.09830
           Z5           0.04055   0.03901  -0.04318  -0.02852  -0.05065
           X6          -0.00920   0.00363  -0.00587  -0.00738  -0.01906
           Y6           0.03839   0.02133  -0.01316  -0.01227  -0.03881
           Z6           0.03533   0.02594  -0.03412  -0.08424  -0.03464
                          Z2        X3        Y3        Z3        X4
           Z2           0.27221
           X3          -0.03771   0.06827
           Y3           0.03460   0.00528   0.38838
           Z3           0.01026   0.01497   0.14894   0.13643
           X4          -0.03297  -0.02230  -0.03551  -0.00228   0.33353
           Y4           0.00672   0.11452  -0.05765  -0.07091  -0.15440
           Z4          -0.01397   0.03217   0.00489  -0.02876  -0.05497
           X5           0.01442   0.03377   0.02742   0.01563  -0.26767
           Y5           0.01815  -0.08555   0.02728   0.04261   0.14080
           Z5           0.01802  -0.02588   0.00256   0.01225   0.05049
           X6           0.00131   0.00020  -0.00258  -0.00062  -0.05427
           Y6          -0.02156  -0.01445   0.00260   0.01033  -0.00368
           Z6           0.00606  -0.00471  -0.00901   0.01062   0.00280
                          Y4        Z4        X5        Y5        Z5
           Y4           0.61388
           Z4          -0.17762   0.47511
           X5           0.18159  -0.02793   0.28189
           Y5          -0.31791  -0.02197  -0.18300   0.28926
           Z5          -0.07217  -0.10870  -0.00827   0.04864   0.06665
           X6          -0.00132   0.02621  -0.00091   0.04020  -0.02752
           Y6          -0.24532   0.17936   0.01608   0.02764   0.03302
           Z6           0.21686  -0.38166   0.04256  -0.01346   0.05502
                          X6        Y6        Z6
           X6           0.06072
           Y6          -0.03090   0.22657
           Z6           0.00765  -0.18738   0.34459
 ITU=  0  0  0  0  0  0  0  0 -1  1  1  1  1  1  1  1  0 -1  1
     Eigenvalues ---    0.00217   0.00256   0.01192   0.03362   0.04432
     Eigenvalues ---    0.17786   0.20395   0.52480   0.59791   0.70639
     Eigenvalues ---    1.04975   1.16465
 RFO step:  Lambda=-2.49251571D-06 EMin= 2.17461364D-03
 Quartic linear search produced a step of -0.57946.
 TrRot= -0.001058  0.000533 -0.000520 -1.585599  0.000420  1.585828
 MatCor failed.
 Variable       Old X    -DE/DX   Delta X   Delta X   Delta X     New X
                                 (Linear)    (Quad)   (Total)
    X1       -3.38564   0.00009   0.00019  -0.00472  -0.00646  -3.39210
    Y1        3.73943   0.00027  -0.00011  -0.00144  -0.00238   3.73705
    Z1        1.38402  -0.00005  -0.00039   0.00267   0.00331   1.38733
    X2       -4.40206  -0.00008  -0.00046   0.00099  -0.00135  -4.40341
    Y2        3.57127  -0.00015   0.00052   0.00557   0.00566   3.57694
    Z2       -0.12837   0.00009   0.00000  -0.00165  -0.00070  -0.12908
    X3       -3.26030   0.00006   0.00004   0.01581   0.01352  -3.24678
    Y3        5.47992  -0.00009  -0.00038  -0.00197  -0.00337   5.47655
    Z3        1.93639  -0.00001   0.00044  -0.00382  -0.00162   1.93477
    X4       -2.84633  -0.00012  -0.00005  -0.00184  -0.00300  -2.84933
    Y4        0.09185  -0.00004   0.00021  -0.00402  -0.00600   0.08585
    Z4        4.94744  -0.00016  -0.00007  -0.00104  -0.00162   4.94582
    X5       -1.33073   0.00010   0.00000   0.01190   0.01102  -1.31971
    Y5       -0.91644   0.00005   0.00011   0.01548   0.01382  -0.90263
    Z5        4.77091   0.00005   0.00069   0.00187   0.00165   4.77256
    X6       -3.00351  -0.00004   0.00028  -0.01263  -0.01374  -3.01725
    Y6        1.36359  -0.00005  -0.00034  -0.00572  -0.00772   1.35586
    Z6        3.59722   0.00008  -0.00067  -0.00038  -0.00102   3.59620
         Item               Value     Threshold  Converged?
 Maximum Force            0.000269     0.000450     YES
 RMS     Force            0.000104     0.000300     YES
 Maximum Displacement     0.013817     0.001800     NO 
 RMS     Displacement     0.007078     0.001200     NO 
 Predicted change in Energy=-1.001885D-06
 Optimization stopped.
    -- Number of steps exceeded,  NStep= 100
    -- Flag reset to prevent archiving.
 GradGradGradGradGradGradGradGradGradGradGradGradGradGradGradGradGradGrad

                          Input orientation:                          
 ---------------------------------------------------------------------
 Center     Atomic      Atomic             Coordinates (Angstroms)
 Number     Number       Type             X           Y           Z
 ---------------------------------------------------------------------
      1          8           0       -1.791605    1.978823    0.732391
      2          1           0       -2.329470    1.889836   -0.067933
      3          1           0       -1.725279    2.899848    1.024694
      4          8           0       -1.506212    0.048605    2.618071
      5          1           0       -0.704194   -0.484962    2.524659
      6          1           0       -1.589390    0.721578    1.903566
 ---------------------------------------------------------------------
                    Distance matrix (angstroms):
                    1          2          3          4          5
     1  O    0.000000
     2  H    0.968368   0.000000
     3  H    0.968570   1.605928   0.000000
     4  O    2.713481   3.358944   3.273596   0.000000
     5  H    3.234953   3.873335   3.840501   0.967808   0.000000
     6  H    1.730089   2.408185   2.352816   0.985053   1.620206
                    6
     6  H    0.000000
 Stoichiometry    H4O2
 Framework group  C1[X(H4O2)]
 Deg. of freedom    12
 Full point group                 C1      NOp   1
 Largest Abelian subgroup         C1      NOp   1
 Largest concise Abelian subgroup C1      NOp   1
                         Standard orientation:                         
 ---------------------------------------------------------------------
 Center     Atomic      Atomic             Coordinates (Angstroms)
 Number     Number       Type             X           Y           Z
 ---------------------------------------------------------------------
      1          8           0       -1.276855    0.013683    0.052365
      2          1           0       -1.832586    0.746639   -0.250413
      3          1           0       -1.740087   -0.835746    0.007476
      4          8           0        1.431489   -0.033100   -0.107835
      5          1           0        1.883939    0.225115    0.707804
      6          1           0        0.451664    0.019331   -0.021105
 ---------------------------------------------------------------------
 Rotational constants (GHZ):    242.7373455      7.2375890      7.1773823

 **********************************************************************

            Population analysis using the SCF density.

 **********************************************************************

 Orbital symmetries:
       Occupied  (A) (A) (A) (A) (A) (A) (A) (A)
       Virtual   (A) (A) (A) (A) (A) (A) (A) (A) (A) (A) (A) (A)
                 (A) (A) (A) (A) (A) (A) (A) (A) (A) (A)
 The electronic state is 1-A.
 Alpha  occ. eigenvalues --   -1.08697  -1.00034  -0.60728  -0.53473  -0.42874
 Alpha  occ. eigenvalues --   -0.36784  -0.33070  -0.28567
 Alpha virt. eigenvalues --    0.02920   0.08696   0.09428   0.11994   0.15440
 Alpha virt. eigenvalues --    0.16349   0.18727   0.23194   0.24522   0.32572
 Alpha virt. eigenvalues --    0.88780   1.01318   1.09605   1.11736   1.14688
 Alpha virt. eigenvalues --    1.17239   1.19482   1.22529   1.26357   1.29591
 Alpha virt. eigenvalues --    2.00959   2.52343
          Condensed to atoms (all electrons):
               1          2          3          4          5          6
     1  O    6.315865   0.280088   0.281185  -0.018463   0.001569  -0.001079
     2  H    0.280088   0.305828  -0.021759   0.000253  -0.000017   0.000762
     3  H    0.281185  -0.021759   0.306753   0.000313  -0.000009   0.000684
     4  O   -0.018463   0.000253   0.000313   6.314037   0.281017   0.277228
     5  H    0.001569  -0.000017  -0.000009   0.281017   0.359818  -0.023481
     6  H   -0.001079   0.000762   0.000684   0.277228  -0.023481   0.281116
 Mulliken charges:
               1
     1  O   -0.859165
     2  H    0.434845
     3  H    0.432832
     4  O   -0.854385
     5  H    0.381104
     6  H    0.464769
 Sum of Mulliken charges =   0.00000
 Mulliken charges with hydrogens summed into heavy atoms:
               1
     1  O    0.008511
     4  O   -0.008511
 Electronic spatial extent (au):  <R**2>=            148.0958
 Charge=              0.0000 electrons
 Dipole moment (field-independent basis, Debye):
    X=             -4.2539    Y=              0.4510    Z=              1.2452  Tot=              4.4553
 Quadrupole moment (field-independent basis, Debye-Ang):
   XX=             -9.0169   YY=            -11.8211   ZZ=            -14.1741
   XY=              1.5904   XZ=              5.6144   YZ=             -0.1417
 Traceless Quadrupole moment (field-independent basis, Debye-Ang):
   XX=              2.6538   YY=             -0.1504   ZZ=             -2.5034
   XY=              1.5904   XZ=              5.6144   YZ=             -0.1417
 Octapole moment (field-independent basis, Debye-Ang**2):
  XXX=            -17.9536  YYY=              0.0273  ZZZ=              1.2433  XYY=             -7.1694
  XXY=              2.2926  XXZ=              5.0864  XZZ=              0.8846  YZZ=              0.3170
  YYZ=              0.1069  XYZ=              1.7302
 Hexadecapole moment (field-independent basis, Debye-Ang**3):
 XXXX=           -139.8876 YYYY=            -15.0555 ZZZZ=            -16.7620 XXXY=              4.8062
 XXXZ=             21.7184 YYYX=              1.5804 YYYZ=             -0.3124 ZZZX=              4.9672
 ZZZY=              0.0882 XXYY=            -24.5422 XXZZ=            -30.9271 YYZZ=             -5.5786
 XXYZ=             -0.4188 YYXZ=              1.8659 ZZXY=              0.5140
 N-N= 2.618846345452D+01 E-N=-1.345696930683D+02  KE= 2.720962521202D+01


 Cherishing children is the mark of a civilized society.
 -- Joan Ganz Cooney
 Error termination request processed by link 9999.
 Error termination via Lnk1e in /home/human/g09/l9999.exe at Thu Jul 25 18:25:00 2019.
 Job cpu time:       0 days  0 hours  6 minutes 10.2 seconds.
 File lengths (MBytes):  RWF=      5 Int=      0 D2E=      0 Chk=      1 Scr=      1
