 Entering Gaussian System, Link 0=g09
 Input=Kick0004-opt.com
 Output=Kick0004-opt.log
 Initial command:
 /home/human/g09/l1.exe "/tmp/Gau-27718.inp" -scrdir="/tmp/"
 Entering Link 1 = /home/human/g09/l1.exe PID=     27720.
  
 Copyright (c) 1988,1990,1992,1993,1995,1998,2003,2009,2013,
            Gaussian, Inc.  All Rights Reserved.
  
 This is part of the Gaussian(R) 09 program.  It is based on
 the Gaussian(R) 03 system (copyright 2003, Gaussian, Inc.),
 the Gaussian(R) 98 system (copyright 1998, Gaussian, Inc.),
 the Gaussian(R) 94 system (copyright 1995, Gaussian, Inc.),
 the Gaussian 92(TM) system (copyright 1992, Gaussian, Inc.),
 the Gaussian 90(TM) system (copyright 1990, Gaussian, Inc.),
 the Gaussian 88(TM) system (copyright 1988, Gaussian, Inc.),
 the Gaussian 86(TM) system (copyright 1986, Carnegie Mellon
 University), and the Gaussian 82(TM) system (copyright 1983,
 Carnegie Mellon University). Gaussian is a federally registered
 trademark of Gaussian, Inc.
  
 This software contains proprietary and confidential information,
 including trade secrets, belonging to Gaussian, Inc.
  
 This software is provided under written license and may be
 used, copied, transmitted, or stored only in accord with that
 written license.
  
 The following legend is applicable only to US Government
 contracts under FAR:
  
                    RESTRICTED RIGHTS LEGEND
  
 Use, reproduction and disclosure by the US Government is
 subject to restrictions as set forth in subparagraphs (a)
 and (c) of the Commercial Computer Software - Restricted
 Rights clause in FAR 52.227-19.
  
 Gaussian, Inc.
 340 Quinnipiac St., Bldg. 40, Wallingford CT 06492
  
  
 ---------------------------------------------------------------
 Warning -- This program may not be used in any manner that
 competes with the business of Gaussian, Inc. or will provide
 assistance to any competitor of Gaussian, Inc.  The licensee
 of this program is prohibited from giving any competitor of
 Gaussian, Inc. access to this program.  By using this program,
 the user acknowledges that Gaussian, Inc. is engaged in the
 business of creating and licensing software in the field of
 computational chemistry and represents and warrants to the
 licensee that it is not a competitor of Gaussian, Inc. and that
 it will not use this program in any manner prohibited above.
 ---------------------------------------------------------------
  

 Cite this work as:
 Gaussian 09, Revision D.01,
 M. J. Frisch, G. W. Trucks, H. B. Schlegel, G. E. Scuseria, 
 M. A. Robb, J. R. Cheeseman, G. Scalmani, V. Barone, B. Mennucci, 
 G. A. Petersson, H. Nakatsuji, M. Caricato, X. Li, H. P. Hratchian, 
 A. F. Izmaylov, J. Bloino, G. Zheng, J. L. Sonnenberg, M. Hada, 
 M. Ehara, K. Toyota, R. Fukuda, J. Hasegawa, M. Ishida, T. Nakajima, 
 Y. Honda, O. Kitao, H. Nakai, T. Vreven, J. A. Montgomery, Jr., 
 J. E. Peralta, F. Ogliaro, M. Bearpark, J. J. Heyd, E. Brothers, 
 K. N. Kudin, V. N. Staroverov, T. Keith, R. Kobayashi, J. Normand, 
 K. Raghavachari, A. Rendell, J. C. Burant, S. S. Iyengar, J. Tomasi, 
 M. Cossi, N. Rega, J. M. Millam, M. Klene, J. E. Knox, J. B. Cross, 
 V. Bakken, C. Adamo, J. Jaramillo, R. Gomperts, R. E. Stratmann, 
 O. Yazyev, A. J. Austin, R. Cammi, C. Pomelli, J. W. Ochterski, 
 R. L. Martin, K. Morokuma, V. G. Zakrzewski, G. A. Voth, 
 P. Salvador, J. J. Dannenberg, S. Dapprich, A. D. Daniels, 
 O. Farkas, J. B. Foresman, J. V. Ortiz, J. Cioslowski, 
 and D. J. Fox, Gaussian, Inc., Wallingford CT, 2013.
 
 ******************************************
 Gaussian 09:  ES64L-G09RevD.01 24-Apr-2013
                25-Jul-2019 
 ******************************************
 %NProc=4
 Will use up to    4 processors via shared memory.
 %mem=4GB
 ----------------------------------------------------------------
 # PBE1PBE/SDDAll scf=(maxcycle=512) opt=(cartesian,maxcycle=512)
 ----------------------------------------------------------------
 1/6=512,10=7,14=-1,18=10,26=3,38=1/1,3;
 2/12=2,17=6,18=5,29=2,40=1/2;
 3/5=17,6=6,11=2,16=1,25=1,30=1,71=1,74=-13/1,2,3;
 4//1;
 5/5=2,7=512,38=5/2;
 6/7=2,8=2,9=2,10=2,28=1/1;
 7/7=1,29=1/1,2,3,16;
 1/6=512,10=7,14=-1,18=10,26=3/3(2);
 2/29=1/2;
 99/12=1/99;
 2/29=1/2;
 3/5=17,6=6,11=2,16=1,25=1,30=1,71=1,74=-13/1,2,3;
 4/5=5,16=3,69=1/1;
 5/5=2,7=512,38=5/2;
 7/7=1/1,2,3,16;
 1/6=512,14=-1,18=10,26=3/3(-5);
 2/29=1/2;
 6/7=2,8=2,9=2,10=2,19=2,28=1/1;
 99/9=1,12=1/99;
 ------------------------------------
 Cellular Automata job -34.4128104423
 ------------------------------------
 Symbolic Z-matrix:
 Charge =  0 Multiplicity = 1
 8                    -1.44956  -0.10429   0.03406 
 1                    -1.92677   0.72135  -0.16627 
 1                    -0.47435  -0.00239  -0.02703 
 8                     1.29756   0.02384  -0.0479 
 1                     1.76566  -0.83085   0.04556 
 1                     1.85149   0.75552   0.25846 
 

 GradGradGradGradGradGradGradGradGradGradGradGradGradGradGradGradGradGrad
 Berny optimization.
 Initialization pass.
 No Z-matrix variables, so optimization will use Cartesian coordinates.
 Trust Radius=3.00D-01 FncErr=1.00D-07 GrdErr=1.00D-06
 Number of steps in this run=    100 maximum allowed number of steps=    100.
 GradGradGradGradGradGradGradGradGradGradGradGradGradGradGradGradGradGrad

 ---------------------------------------------------------------------------------------------------
                            Z-MATRIX (ANGSTROMS AND DEGREES)
   CD    Cent   Atom    N1       Length/X        N2       Alpha/Y        N3        Beta/Z          J
 ---------------------------------------------------------------------------------------------------
      1      1  O        0  -1.449561         -0.104294          0.034057
      2      2  H        0  -1.926774          0.721350         -0.166265
      3      3  H        0  -0.474353         -0.002385         -0.027029
      4      4  O        0   1.297558          0.023839         -0.047898
      5      5  H        0   1.765662         -0.830849          0.045556
      6      6  H        0   1.851488          0.755521          0.258459
 ---------------------------------------------------------------------------------------------------
                         Z-Matrix orientation:                         
 ---------------------------------------------------------------------
 Center     Atomic      Atomic             Coordinates (Angstroms)
 Number     Number       Type             X           Y           Z
 ---------------------------------------------------------------------
      1          8           0       -1.449561   -0.104294    0.034057
      2          1           0       -1.926774    0.721350   -0.166265
      3          1           0       -0.474353   -0.002385   -0.027029
      4          8           0        1.297558    0.023839   -0.047898
      5          1           0        1.765662   -0.830849    0.045556
      6          1           0        1.851488    0.755521    0.258459
 ---------------------------------------------------------------------
                    Distance matrix (angstroms):
                    1          2          3          4          5
     1  O    0.000000
     2  H    0.974448   0.000000
     3  H    0.982419   1.628713   0.000000
     4  O    2.751326   3.301038   1.772228   0.000000
     5  H    3.296312   4.011019   2.389412   0.978952   0.000000
     6  H    3.418561   3.802213   2.462816   0.967498   1.602892
                    6
     6  H    0.000000
 Stoichiometry    H4O2
 Framework group  C1[X(H4O2)]
 Deg. of freedom    12
 Full point group                 C1      NOp   1
 Largest Abelian subgroup         C1      NOp   1
 Largest concise Abelian subgroup C1      NOp   1
                         Standard orientation:                         
 ---------------------------------------------------------------------
 Center     Atomic      Atomic             Coordinates (Angstroms)
 Number     Number       Type             X           Y           Z
 ---------------------------------------------------------------------
      1          8           0       -1.449561   -0.104294    0.034057
      2          1           0       -1.926774    0.721350   -0.166265
      3          1           0       -0.474353   -0.002385   -0.027029
      4          8           0        1.297558    0.023839   -0.047898
      5          1           0        1.765662   -0.830849    0.045556
      6          1           0        1.851488    0.755521    0.258459
 ---------------------------------------------------------------------
 Rotational constants (GHZ):    243.0099406      7.0934779      6.9190042
 Standard basis: SDDAll (6D, 10F)
 There are    30 symmetry adapted cartesian basis functions of A   symmetry.
 There are    30 symmetry adapted basis functions of A   symmetry.
    30 basis functions,    54 primitive gaussians,    30 cartesian basis functions
     8 alpha electrons        8 beta electrons
       nuclear repulsion energy        25.9472071213 Hartrees.
 NAtoms=    6 NActive=    6 NUniq=    6 SFac= 1.00D+00 NAtFMM=   60 NAOKFM=F Big=F
 Integral buffers will be    131072 words long.
 Raffenetti 2 integral format.
 Two-electron integral symmetry is turned on.
 One-electron integrals computed using PRISM.
   1 Symmetry operations used in ECPInt.
 ECPInt:  NShTT=     171 NPrTT=     619 LenC2=     172 LenP2D=     564.
 LDataN:  DoStor=T MaxTD1= 4 Len=   56
 NBasis=    30 RedAO= T EigKep=  3.61D-02  NBF=    30
 NBsUse=    30 1.00D-06 EigRej= -1.00D+00 NBFU=    30
 ExpMin= 7.02D-02 ExpMax= 4.71D+01 ExpMxC= 4.71D+01 IAcc=2 IRadAn=         4 AccDes= 0.00D+00
 Harris functional with IExCor= 1009 and IRadAn=       4 diagonalized for initial guess.
 HarFok:  IExCor= 1009 AccDes= 0.00D+00 IRadAn=         4 IDoV= 1 UseB2=F ITyADJ=14
 ICtDFT=  3500011 ScaDFX=  1.000000  1.000000  1.000000  1.000000
 FoFCou: FMM=F IPFlag=           0 FMFlag=      100000 FMFlg1=           0
         NFxFlg=           0 DoJE=T BraDBF=F KetDBF=T FulRan=T
         wScrn=  0.000000 ICntrl=     500 IOpCl=  0 I1Cent=   200000004 NGrid=           0
         NMat0=    1 NMatS0=      1 NMatT0=    0 NMatD0=    1 NMtDS0=    0 NMtDT0=    0
 Petite list used in FoFCou.
 Keep R1 ints in memory in canonical form, NReq=1237769.
 Requested convergence on RMS density matrix=1.00D-08 within 512 cycles.
 Requested convergence on MAX density matrix=1.00D-06.
 Requested convergence on             energy=1.00D-06.
 No special actions if energy rises.
 Integral accuracy reduced to 1.0D-05 until final iterations.
 Initial convergence to 1.0D-05 achieved.  Increase integral accuracy.
 SCF Done:  E(RPBE1PBE) =  -34.4128104547     A.U. after   12 cycles
            NFock= 12  Conv=0.37D-08     -V/T= 2.2665

 **********************************************************************

            Population analysis using the SCF density.

 **********************************************************************

 Orbital symmetries:
       Occupied  (A) (A) (A) (A) (A) (A) (A) (A)
       Virtual   (A) (A) (A) (A) (A) (A) (A) (A) (A) (A) (A) (A)
                 (A) (A) (A) (A) (A) (A) (A) (A) (A) (A)
 The electronic state is 1-A.
 Alpha  occ. eigenvalues --   -1.08389  -1.00090  -0.60171  -0.53450  -0.42741
 Alpha  occ. eigenvalues --   -0.36633  -0.33239  -0.28629
 Alpha virt. eigenvalues --    0.02798   0.08453   0.09339   0.12122   0.15247
 Alpha virt. eigenvalues --    0.16637   0.18460   0.21616   0.26209   0.31852
 Alpha virt. eigenvalues --    0.88794   1.00655   1.08810   1.11959   1.15231
 Alpha virt. eigenvalues --    1.17531   1.19196   1.22302   1.25743   1.29275
 Alpha virt. eigenvalues --    2.02464   2.49535
          Condensed to atoms (all electrons):
               1          2          3          4          5          6
     1  O    6.314387   0.279668   0.276066  -0.017505   0.001080  -0.000058
     2  H    0.279668   0.359734  -0.022461   0.001247   0.000004  -0.000034
     3  H    0.276066  -0.022461   0.282058  -0.000232   0.000764   0.000356
     4  O   -0.017505   0.001247  -0.000232   6.309386   0.280787   0.279199
     5  H    0.001080   0.000004   0.000764   0.280787   0.308955  -0.022300
     6  H   -0.000058  -0.000034   0.000356   0.279199  -0.022300   0.312320
 Mulliken charges:
               1
     1  O   -0.853639
     2  H    0.381842
     3  H    0.463450
     4  O   -0.852882
     5  H    0.430710
     6  H    0.430518
 Sum of Mulliken charges =   0.00000
 Mulliken charges with hydrogens summed into heavy atoms:
               1
     1  O   -0.008346
     4  O    0.008346
 Electronic spatial extent (au):  <R**2>=            151.4449
 Charge=              0.0000 electrons
 Dipole moment (field-independent basis, Debye):
    X=              4.1422    Y=              1.8604    Z=              0.3561  Tot=              4.5547
 Quadrupole moment (field-independent basis, Debye-Ang):
   XX=             -8.7980   YY=            -10.5142   ZZ=            -15.5035
   XY=             -4.5134   XZ=              2.8279   YZ=              0.1491
 Traceless Quadrupole moment (field-independent basis, Debye-Ang):
   XX=              2.8072   YY=              1.0910   ZZ=             -3.8982
   XY=             -4.5134   XZ=              2.8279   YZ=              0.1491
 Octapole moment (field-independent basis, Debye-Ang**2):
  XXX=             17.5231  YYY=              1.4613  ZZZ=              0.2105  XYY=              4.9475
  XXY=              8.0062  XXZ=              1.3019  XZZ=              1.3328  YZZ=              0.5107
  YYZ=              0.2724  XYZ=              1.3827
 Hexadecapole moment (field-independent basis, Debye-Ang**3):
 XXXX=           -142.3089 YYYY=            -14.8029 ZZZZ=            -16.9775 XXXY=            -17.0132
 XXXZ=             10.5629 YYYX=             -4.5551 YYYZ=              0.1370 ZZZX=              1.9660
 ZZZY=              0.1224 XXYY=            -21.3035 XXZZ=            -35.5697 YYZZ=             -5.5953
 XXYZ=              0.4571 YYXZ=              1.5051 ZZXY=             -0.9143
 N-N= 2.594720712134D+01 E-N=-1.340696503050D+02  KE= 2.717224442462D+01
   1 Symmetry operations used in ECPInt.
 ECPInt:  NShTT=     171 NPrTT=     619 LenC2=     172 LenP2D=     564.
 LDataN:  DoStor=T MaxTD1= 5 Len=  102
 Calling FoFJK, ICntrl=      2127 FMM=F ISym2X=0 I1Cent= 0 IOpClX= 0 NMat=1 NMatS=1 NMatT=0.
 ***** Axes restored to original set *****
 -------------------------------------------------------------------
 Center     Atomic                   Forces (Hartrees/Bohr)
 Number     Number              X              Y              Z
 -------------------------------------------------------------------
      1        8          -0.004588387    0.004551080   -0.000256218
      2        1           0.003888304   -0.005534411    0.000689973
      3        1           0.001505650    0.000733040   -0.000660092
      4        8           0.004319320   -0.008816838    0.002001770
      5        1          -0.005646480    0.007186394   -0.001932093
      6        1           0.000521594    0.001880736    0.000156660
 -------------------------------------------------------------------
 Cartesian Forces:  Max     0.008816838 RMS     0.003963654

 GradGradGradGradGradGradGradGradGradGradGradGradGradGradGradGradGradGrad
 Berny optimization.
 Search for a local minimum.
 Step number   1 out of a maximum of  100
 All quantities printed in internal units (Hartrees-Bohrs-Radians)
 Second derivative matrix not updated -- first step.
 The second derivative matrix:
                          X1        Y1        Z1        X2        Y2
           X1           0.65456
           Y1          -0.11466   0.47739
           Z1           0.00713  -0.12150   0.03170
           X2          -0.15694   0.15937  -0.03639   0.16167
           Y2           0.20112  -0.40800   0.10021  -0.19858   0.38701
           Z2          -0.04736   0.10168  -0.02507   0.04653  -0.09478
           X3          -0.49762  -0.04472   0.02925  -0.00473  -0.00253
           Y3          -0.08646  -0.06939   0.02129   0.03921   0.02099
           Z3           0.04023   0.01982  -0.00663  -0.01014  -0.00543
           X4           0.00000   0.00000   0.00000   0.00000   0.00000
           Y4           0.00000   0.00000   0.00000   0.00000   0.00000
           Z4           0.00000   0.00000   0.00000   0.00000   0.00000
           X5           0.00000   0.00000   0.00000   0.00000   0.00000
           Y5           0.00000   0.00000   0.00000   0.00000   0.00000
           Z5           0.00000   0.00000   0.00000   0.00000   0.00000
           X6           0.00000   0.00000   0.00000   0.00000   0.00000
           Y6           0.00000   0.00000   0.00000   0.00000   0.00000
           Z6           0.00000   0.00000   0.00000   0.00000   0.00000
                          Z2        X3        Y3        Z3        X4
           Z2           0.02329
           X3           0.00083   0.50236
           Y3          -0.00690   0.04725   0.04840
           Z3           0.00178  -0.03009  -0.01439   0.00484
           X4           0.00000   0.00000   0.00000   0.00000   0.40459
           Y4           0.00000   0.00000   0.00000   0.00000   0.00527
           Z4           0.00000   0.00000   0.00000   0.00000   0.16433
           X5           0.00000   0.00000   0.00000   0.00000  -0.17497
           Y5           0.00000   0.00000   0.00000   0.00000   0.18120
           Z5           0.00000   0.00000   0.00000   0.00000  -0.05046
           X6           0.00000   0.00000   0.00000   0.00000  -0.22963
           Y6           0.00000   0.00000   0.00000   0.00000  -0.18647
           Z6           0.00000   0.00000   0.00000   0.00000  -0.11387
                          Y4        Z4        X5        Y5        Z5
           Y4           0.70292
           Z4           0.08108   0.07561
           X5           0.22196  -0.04588   0.14751
           Y5          -0.38929   0.02961  -0.19766   0.40385
           Z5           0.04611  -0.01524   0.03750  -0.03464   0.01129
           X6          -0.22723  -0.11845   0.02746   0.01646   0.01296
           Y6          -0.31364  -0.11069  -0.02430  -0.01456  -0.01147
           Z6          -0.12719  -0.06037   0.00838   0.00502   0.00396
                          X6        Y6        Z6
           X6           0.20217
           Y6           0.21077   0.32820
           Z6           0.10549   0.12216   0.05641
 ITU=  0
     Eigenvalues ---    0.00000   0.00000   0.00000   0.00000   0.00000
     Eigenvalues ---    0.00000   0.15215   0.15677   0.79582   0.85387
     Eigenvalues ---    1.07642   1.13061
 RFO step:  Lambda=-1.99046135D-03 EMin=-6.66133815D-16
 Linear search not attempted -- first point.
 Maximum step size (   0.300) exceeded in Quadratic search.
    -- Step size scaled by   0.323
 TrRot= -0.005238  0.007696  0.040072  1.550365  0.006998 -1.549370
 Variable       Old X    -DE/DX   Delta X   Delta X   Delta X     New X
                                 (Linear)    (Quad)   (Total)
    X1       -2.73927  -0.00459   0.00000   0.06082   0.05579  -2.68348
    Y1       -0.19709   0.00455   0.00000   0.00581   0.01172  -0.18537
    Z1        0.06436  -0.00026   0.00000   0.05982   0.10163   0.16599
    X2       -3.64108   0.00389   0.00000   0.03338   0.02678  -3.61430
    Y2        1.36315  -0.00553   0.00000  -0.05542  -0.05429   1.30886
    Z2       -0.31420   0.00069   0.00000  -0.10779  -0.07632  -0.39051
    X3       -0.89640   0.00151   0.00000   0.05283   0.04758  -0.84882
    Y3       -0.00451   0.00073   0.00000  -0.00269   0.00314  -0.00137
    Z3       -0.05108  -0.00066   0.00000  -0.09502  -0.05477  -0.10585
    X4        2.45203   0.00432   0.00000  -0.08321  -0.08852   2.36351
    Y4        0.04505  -0.00882   0.00000   0.02719   0.03731   0.08236
    Z4       -0.09051   0.00200   0.00000   0.10093   0.14014   0.04963
    X5        3.33662  -0.00565   0.00000  -0.09579  -0.09947   3.23714
    Y5       -1.57008   0.00719   0.00000  -0.00045   0.01008  -1.55999
    Z5        0.08609  -0.00193   0.00000  -0.14624  -0.09567  -0.00958
    X6        3.49881   0.00052   0.00000   0.06441   0.05784   3.55664
    Y6        1.42773   0.00188   0.00000  -0.02227  -0.00796   1.41977
    Z6        0.48842   0.00016   0.00000  -0.04472  -0.01502   0.47339
         Item               Value     Threshold  Converged?
 Maximum Force            0.008817     0.000450     NO 
 RMS     Force            0.003964     0.000300     NO 
 Maximum Displacement     0.140144     0.001800     NO 
 RMS     Displacement     0.066663     0.001200     NO 
 Predicted change in Energy=-6.217368D-04
 GradGradGradGradGradGradGradGradGradGradGradGradGradGradGradGradGradGrad

                          Input orientation:                          
 ---------------------------------------------------------------------
 Center     Atomic      Atomic             Coordinates (Angstroms)
 Number     Number       Type             X           Y           Z
 ---------------------------------------------------------------------
      1          8           0       -1.420036   -0.098093    0.087838
      2          1           0       -1.912603    0.692619   -0.206649
      3          1           0       -0.449175   -0.000723   -0.056013
      4          8           0        1.250717    0.043584    0.026263
      5          1           0        1.713023   -0.825513   -0.005068
      6          1           0        1.882093    0.751308    0.250509
 ---------------------------------------------------------------------
                    Distance matrix (angstroms):
                    1          2          3          4          5
     1  O    0.000000
     2  H    0.977022   0.000000
     3  H    0.986278   1.626357   0.000000
     4  O    2.675217   3.237606   1.702459   0.000000
     5  H    3.217737   3.935801   2.314730   0.984904   0.000000
     6  H    3.413503   3.822586   2.468667   0.974575   1.606321
                    6
     6  H    0.000000
 Stoichiometry    H4O2
 Framework group  C1[X(H4O2)]
 Deg. of freedom    12
 Full point group                 C1      NOp   1
 Largest Abelian subgroup         C1      NOp   1
 Largest concise Abelian subgroup C1      NOp   1
                         Standard orientation:                         
 ---------------------------------------------------------------------
 Center     Atomic      Atomic             Coordinates (Angstroms)
 Number     Number       Type             X           Y           Z
 ---------------------------------------------------------------------
      1          8           0       -1.414422   -0.099095    0.047496
      2          1           0       -1.903311    0.697960   -0.235812
      3          1           0       -0.443561   -0.005945   -0.099117
      4          8           0        1.256882    0.027098   -0.023167
      5          1           0        1.713744   -0.844362   -0.066441
      6          1           0        1.893450    0.728326    0.206738
 ---------------------------------------------------------------------
 Rotational constants (GHZ):    249.6596202      7.4505335      7.2654753
 Standard basis: SDDAll (6D, 10F)
 There are    30 symmetry adapted cartesian basis functions of A   symmetry.
 There are    30 symmetry adapted basis functions of A   symmetry.
    30 basis functions,    54 primitive gaussians,    30 cartesian basis functions
     8 alpha electrons        8 beta electrons
       nuclear repulsion energy        26.2048789070 Hartrees.
 NAtoms=    6 NActive=    6 NUniq=    6 SFac= 1.00D+00 NAtFMM=   60 NAOKFM=F Big=F
 Integral buffers will be    131072 words long.
 Raffenetti 2 integral format.
 Two-electron integral symmetry is turned on.
 One-electron integrals computed using PRISM.
   1 Symmetry operations used in ECPInt.
 ECPInt:  NShTT=     171 NPrTT=     619 LenC2=     172 LenP2D=     564.
 LDataN:  DoStor=T MaxTD1= 4 Len=   56
 NBasis=    30 RedAO= T EigKep=  3.29D-02  NBF=    30
 NBsUse=    30 1.00D-06 EigRej= -1.00D+00 NBFU=    30
 Initial guess from the checkpoint file:  "/tmp/Gau-27720.chk"
 B after Tr=     0.000000    0.000000    0.000000
         Rot=    0.999999   -0.000248   -0.000667    0.001301 Ang=  -0.17 deg.
 ExpMin= 7.02D-02 ExpMax= 4.71D+01 ExpMxC= 4.71D+01 IAcc=2 IRadAn=         4 AccDes= 0.00D+00
 Harris functional with IExCor= 1009 and IRadAn=       4 diagonalized for initial guess.
 HarFok:  IExCor= 1009 AccDes= 0.00D+00 IRadAn=         4 IDoV= 1 UseB2=F ITyADJ=14
 ICtDFT=  3500011 ScaDFX=  1.000000  1.000000  1.000000  1.000000
 FoFCou: FMM=F IPFlag=           0 FMFlag=      100000 FMFlg1=           0
         NFxFlg=           0 DoJE=T BraDBF=F KetDBF=T FulRan=T
         wScrn=  0.000000 ICntrl=     500 IOpCl=  0 I1Cent=   200000004 NGrid=           0
         NMat0=    1 NMatS0=      1 NMatT0=    0 NMatD0=    1 NMtDS0=    0 NMtDT0=    0
 Petite list used in FoFCou.
 Keep R1 ints in memory in canonical form, NReq=1237769.
 Requested convergence on RMS density matrix=1.00D-08 within 512 cycles.
 Requested convergence on MAX density matrix=1.00D-06.
 Requested convergence on             energy=1.00D-06.
 No special actions if energy rises.
 Integral accuracy reduced to 1.0D-05 until final iterations.
 Initial convergence to 1.0D-05 achieved.  Increase integral accuracy.
 SCF Done:  E(RPBE1PBE) =  -34.4123026973     A.U. after   11 cycles
            NFock= 11  Conv=0.61D-08     -V/T= 2.2677
   1 Symmetry operations used in ECPInt.
 ECPInt:  NShTT=     171 NPrTT=     619 LenC2=     172 LenP2D=     564.
 LDataN:  DoStor=T MaxTD1= 5 Len=  102
 Calling FoFJK, ICntrl=      2127 FMM=F ISym2X=0 I1Cent= 0 IOpClX= 0 NMat=1 NMatS=1 NMatT=0.
 ***** Axes restored to original set *****
 -------------------------------------------------------------------
 Center     Atomic                   Forces (Hartrees/Bohr)
 Number     Number              X              Y              Z
 -------------------------------------------------------------------
      1        8          -0.004826431    0.006783235   -0.004616049
      2        1           0.003835236   -0.007252169    0.002234353
      3        1          -0.001296575    0.001210359    0.004087389
      4        8           0.015680837   -0.010219935   -0.001337249
      5        1          -0.008300276    0.011367133    0.000275531
      6        1          -0.005092791   -0.001888622   -0.000643974
 -------------------------------------------------------------------
 Cartesian Forces:  Max     0.015680837 RMS     0.006510620

 GradGradGradGradGradGradGradGradGradGradGradGradGradGradGradGradGradGrad
 Berny optimization.
 Search for a local minimum.
 Step number   2 out of a maximum of  100
 All quantities printed in internal units (Hartrees-Bohrs-Radians)
 Update second derivatives using D2CorN and points    2    1
 DE=  5.08D-04 DEPred=-6.22D-04 R=-8.17D-01
 Trust test=-8.17D-01 RLast= 2.83D-01 DXMaxT set to 1.50D-01
 The second derivative matrix:
                          X1        Y1        Z1        X2        Y2
           X1           0.65596
           Y1          -0.11602   0.47676
           Z1           0.01009  -0.12388   0.03785
           X2          -0.15709   0.15855  -0.03645   0.16121
           Y2           0.20182  -0.40625   0.10107  -0.19746   0.38433
           Z2          -0.04904   0.10358  -0.02870   0.04684  -0.09596
           X3          -0.49617  -0.04582   0.03227  -0.00473  -0.00220
           Y3          -0.08664  -0.06952   0.02098   0.03908   0.02128
           Z3           0.03791   0.02095  -0.01127  -0.01046  -0.00519
           X4          -0.00555   0.00145  -0.01078  -0.00137   0.00214
           Y4           0.00166  -0.00075   0.00331   0.00025  -0.00024
           Z4           0.00280  -0.00356   0.00615  -0.00070   0.00244
           X5           0.00012   0.00297  -0.00053   0.00151  -0.00378
           Y5          -0.00190  -0.00070  -0.00338  -0.00106   0.00222
           Z5          -0.00185   0.00244  -0.00409   0.00051  -0.00172
           X6           0.00272  -0.00114   0.00540   0.00046  -0.00052
           Y6           0.00108   0.00046   0.00190   0.00063  -0.00134
           Z6           0.00009   0.00046   0.00006   0.00026  -0.00064
                          Z2        X3        Y3        Z3        X4
           Z2           0.02527
           X3          -0.00097   0.50383
           Y3          -0.00664   0.04711   0.04838
           Z3           0.00474  -0.03233  -0.01427   0.00806
           X4           0.00723  -0.00516   0.00010   0.00696   0.41870
           Y4          -0.00212   0.00160  -0.00008  -0.00227   0.00040
           Z4          -0.00326   0.00306  -0.00049  -0.00514   0.15150
           X5          -0.00057  -0.00037   0.00047   0.00158  -0.16920
           Y5           0.00264  -0.00157  -0.00015   0.00169   0.18361
           Z5           0.00214  -0.00204   0.00034   0.00345  -0.04180
           X6          -0.00349   0.00260  -0.00011  -0.00366  -0.23741
           Y6          -0.00150   0.00088   0.00010  -0.00092  -0.18770
           Z6          -0.00019   0.00001   0.00007   0.00016  -0.11312
                          Y4        Z4        X5        Y5        Z5
           Y4           0.70452
           Z4           0.08478   0.08088
           X5           0.22074  -0.04432   0.14264
           Y5          -0.39042   0.02472  -0.19380   0.40311
           Z5           0.04362  -0.01869   0.03633  -0.03128   0.01353
           X6          -0.22465  -0.11233   0.02530   0.01472   0.00885
           Y6          -0.31302  -0.10789  -0.02659  -0.01406  -0.01339
           Z6          -0.12732  -0.05995   0.00751   0.00562   0.00365
                          X6        Y6        Z6
           X6           0.20632
           Y6           0.21170   0.32786
           Z6           0.10524   0.12180   0.05626
 ITU= -1  0
 Energy rises -- skip Quadratic search.
 Quartic linear search produced a step of -0.68347.
 TrRot=  0.000000  0.000000  0.000000  0.000000  0.000000  0.000000
 Variable       Old X    -DE/DX   Delta X   Delta X   Delta X     New X
                                 (Linear)    (Quad)   (Total)
    X1       -2.68348  -0.00483  -0.03813   0.00000  -0.03813  -2.72161
    Y1       -0.18537   0.00678  -0.00801   0.00000  -0.00801  -0.19338
    Z1        0.16599  -0.00462  -0.06946   0.00000  -0.06946   0.09653
    X2       -3.61430   0.00384  -0.01830   0.00000  -0.01830  -3.63260
    Y2        1.30886  -0.00725   0.03711   0.00000   0.03711   1.34597
    Z2       -0.39051   0.00223   0.05216   0.00000   0.05216  -0.33835
    X3       -0.84882  -0.00130  -0.03252   0.00000  -0.03252  -0.88134
    Y3       -0.00137   0.00121  -0.00215   0.00000  -0.00215  -0.00351
    Z3       -0.10585   0.00409   0.03743   0.00000   0.03743  -0.06841
    X4        2.36351   0.01568   0.06050   0.00000   0.06050   2.42401
    Y4        0.08236  -0.01022  -0.02550   0.00000  -0.02550   0.05686
    Z4        0.04963  -0.00134  -0.09578   0.00000  -0.09578  -0.04615
    X5        3.23714  -0.00830   0.06799   0.00000   0.06799   3.30513
    Y5       -1.55999   0.01137  -0.00689   0.00000  -0.00689  -1.56689
    Z5       -0.00958   0.00028   0.06539   0.00000   0.06539   0.05581
    X6        3.55664  -0.00509  -0.03953   0.00000  -0.03953   3.51711
    Y6        1.41977  -0.00189   0.00544   0.00000   0.00544   1.42521
    Z6        0.47339  -0.00064   0.01027   0.00000   0.01027   0.48366
         Item               Value     Threshold  Converged?
 Maximum Force            0.015681     0.000450     NO 
 RMS     Force            0.006511     0.000300     NO 
 Maximum Displacement     0.095784     0.001800     NO 
 RMS     Displacement     0.045562     0.001200     NO 
 Predicted change in Energy=-2.112283D-04
 GradGradGradGradGradGradGradGradGradGradGradGradGradGradGradGradGradGrad

                          Input orientation:                          
 ---------------------------------------------------------------------
 Center     Atomic      Atomic             Coordinates (Angstroms)
 Number     Number       Type             X           Y           Z
 ---------------------------------------------------------------------
      1          8           0       -1.440215   -0.102331    0.051080
      2          1           0       -1.922289    0.712256   -0.179048
      3          1           0       -0.466383   -0.001859   -0.036203
      4          8           0        1.282731    0.030089   -0.024424
      5          1           0        1.749000   -0.829160    0.029532
      6          1           0        1.861176    0.754187    0.255943
 ---------------------------------------------------------------------
                    Distance matrix (angstroms):
                    1          2          3          4          5
     1  O    0.000000
     2  H    0.974118   0.000000
     3  H    0.982884   1.627889   0.000000
     4  O    2.727210   3.280459   1.749446   0.000000
     5  H    3.271061   3.987208   2.365729   0.979094   0.000000
     6  H    3.416837   3.808619   2.464647   0.968257   1.603382
                    6
     6  H    0.000000
 Stoichiometry    H4O2
 Framework group  C1[X(H4O2)]
 Deg. of freedom    12
 Full point group                 C1      NOp   1
 Largest Abelian subgroup         C1      NOp   1
 Largest concise Abelian subgroup C1      NOp   1
                         Standard orientation:                         
 ---------------------------------------------------------------------
 Center     Atomic      Atomic             Coordinates (Angstroms)
 Number     Number       Type             X           Y           Z
 ---------------------------------------------------------------------
      1          8           0       -1.438447   -0.102631    0.038272
      2          1           0       -1.919256    0.713863   -0.187708
      3          1           0       -0.464536   -0.003631   -0.049809
      4          8           0        1.284650    0.024940   -0.040107
      5          1           0        1.749347   -0.835419    0.009529
      6          1           0        1.864825    0.746714    0.242667
 ---------------------------------------------------------------------
 Rotational constants (GHZ):    246.0249566      7.2047583      7.0262572
 Standard basis: SDDAll (6D, 10F)
 There are    30 symmetry adapted cartesian basis functions of A   symmetry.
 There are    30 symmetry adapted basis functions of A   symmetry.
    30 basis functions,    54 primitive gaussians,    30 cartesian basis functions
     8 alpha electrons        8 beta electrons
       nuclear repulsion energy        26.0449065283 Hartrees.
 NAtoms=    6 NActive=    6 NUniq=    6 SFac= 1.00D+00 NAtFMM=   60 NAOKFM=F Big=F
 Integral buffers will be    131072 words long.
 Raffenetti 2 integral format.
 Two-electron integral symmetry is turned on.
 One-electron integrals computed using PRISM.
   1 Symmetry operations used in ECPInt.
 ECPInt:  NShTT=     171 NPrTT=     619 LenC2=     172 LenP2D=     564.
 LDataN:  DoStor=T MaxTD1= 4 Len=   56
 NBasis=    30 RedAO= T EigKep=  3.49D-02  NBF=    30
 NBsUse=    30 1.00D-06 EigRej= -1.00D+00 NBFU=    30
 Lowest energy guess from the checkpoint file:  "/tmp/Gau-27720.chk"
 B after Tr=     0.000000    0.000000    0.000000
         Rot=    1.000000   -0.000436   -0.000220    0.000408 Ang=  -0.07 deg.
 B after Tr=     0.000000    0.000000    0.000000
         Rot=    0.999999   -0.000169    0.000448   -0.000893 Ang=  -0.12 deg.
 Keep R1 ints in memory in canonical form, NReq=1237769.
 Requested convergence on RMS density matrix=1.00D-08 within 512 cycles.
 Requested convergence on MAX density matrix=1.00D-06.
 Requested convergence on             energy=1.00D-06.
 No special actions if energy rises.
 Integral accuracy reduced to 1.0D-05 until final iterations.
 Initial convergence to 1.0D-05 achieved.  Increase integral accuracy.
 SCF Done:  E(RPBE1PBE) =  -34.4129104469     A.U. after    9 cycles
            NFock=  9  Conv=0.28D-08     -V/T= 2.2663
   1 Symmetry operations used in ECPInt.
 ECPInt:  NShTT=     171 NPrTT=     619 LenC2=     172 LenP2D=     564.
 LDataN:  DoStor=T MaxTD1= 5 Len=  102
 Calling FoFJK, ICntrl=      2127 FMM=F ISym2X=0 I1Cent= 0 IOpClX= 0 NMat=1 NMatS=1 NMatT=0.
 ***** Axes restored to original set *****
 -------------------------------------------------------------------
 Center     Atomic                   Forces (Hartrees/Bohr)
 Number     Number              X              Y              Z
 -------------------------------------------------------------------
      1        8          -0.004749863    0.004301629   -0.001150408
      2        1           0.003535908   -0.005277518    0.000867699
      3        1           0.001243106    0.001025174    0.000661053
      4        8           0.006077630   -0.008874584    0.000769284
      5        1          -0.005756412    0.007408579   -0.001288269
      6        1          -0.000350370    0.001416720    0.000140641
 -------------------------------------------------------------------
 Cartesian Forces:  Max     0.008874584 RMS     0.004045916

 GradGradGradGradGradGradGradGradGradGradGradGradGradGradGradGradGradGrad
 Berny optimization.
 Search for a local minimum.
 Step number   3 out of a maximum of  100
 All quantities printed in internal units (Hartrees-Bohrs-Radians)
 Update second derivatives using D2CorN and points    1    3
 The second derivative matrix:
                          X1        Y1        Z1        X2        Y2
           X1           0.65622
           Y1          -0.11575   0.47686
           Z1           0.01008  -0.12350   0.03693
           X2          -0.15704   0.15866  -0.03660   0.16120
           Y2           0.20179  -0.40645   0.10151  -0.19739   0.38412
           Z2          -0.04882   0.10334  -0.02763   0.04706  -0.09649
           X3          -0.49657  -0.04572   0.03110  -0.00499  -0.00160
           Y3          -0.08691  -0.06957   0.02045   0.03894   0.02156
           Z3           0.03746   0.02065  -0.01160  -0.01059  -0.00498
           X4          -0.00547   0.00114  -0.00985  -0.00121   0.00169
           Y4           0.00172  -0.00060   0.00308   0.00023  -0.00014
           Z4           0.00307  -0.00297   0.00541  -0.00077   0.00276
           X5           0.00031   0.00263   0.00070   0.00175  -0.00439
           Y5          -0.00173  -0.00062  -0.00316  -0.00099   0.00210
           Z5          -0.00182   0.00209  -0.00318   0.00066  -0.00216
           X6           0.00255  -0.00096   0.00456   0.00029  -0.00010
           Y6           0.00089   0.00039   0.00162   0.00055  -0.00119
           Z6           0.00002   0.00039   0.00006   0.00025  -0.00064
                          Z2        X3        Y3        Z3        X4
           Z2           0.02417
           X3           0.00009   0.50294
           Y3          -0.00623   0.04684   0.04835
           Z3           0.00477  -0.03209  -0.01401   0.00868
           X4           0.00620  -0.00409   0.00056   0.00718   0.41778
           Y4          -0.00181   0.00122  -0.00027  -0.00245   0.00065
           Z4          -0.00217   0.00170  -0.00120  -0.00588   0.15233
           X5          -0.00188   0.00092   0.00100   0.00172  -0.17040
           Y5           0.00251  -0.00154  -0.00020   0.00149   0.18343
           Z5           0.00109  -0.00092   0.00084   0.00374  -0.04271
           X6          -0.00264   0.00179  -0.00043  -0.00368  -0.23661
           Y6          -0.00133   0.00081   0.00013  -0.00071  -0.18747
           Z6          -0.00025   0.00012   0.00015   0.00029  -0.11314
                          Y4        Z4        X5        Y5        Z5
           Y4           0.70448
           Z4           0.08466   0.08059
           X5           0.22108  -0.04315   0.14112
           Y5          -0.39033   0.02507  -0.19398   0.40317
           Z5           0.04385  -0.01793   0.03513  -0.03148   0.01264
           X6          -0.22489  -0.11319   0.02631   0.01481   0.00966
           Y6          -0.31313  -0.10831  -0.02634  -0.01411  -0.01313
           Z6          -0.12733  -0.06002   0.00747   0.00557   0.00364
                          X6        Y6        Z6
           X6           0.20567
           Y6           0.21157   0.32791
           Z6           0.10529   0.12186   0.05628
 ITU=  0 -1  0
     Eigenvalues ---   -0.00448   0.00000   0.00000   0.00000   0.00000
     Eigenvalues ---    0.02599   0.15223   0.15684   0.79585   0.85512
     Eigenvalues ---    1.07969   1.13059
 RFO step:  Lambda=-4.77922776D-03 EMin=-4.48327878D-03
 I=     1 Eig=   -4.48D-03 Dot1= -4.32D-04
 I=     1 Stepn= -3.75D-01 RXN=   3.75D-01 EDone=F
 Mixed    1 eigenvectors in step.  Raw Step.Grad=  4.32D-04.
 RFO eigenvector is Hessian eigenvector with negative curvature.
 Taking step of  3.75D-01 in eigenvector direction(s).  Step.Grad=  2.70D-04.
 Quartic linear search produced a step of -0.02152.
 Maximum step size (   0.150) exceeded in Quadratic search.
    -- Step size scaled by   0.400
 TrRot=  0.003151  0.003018 -0.002272 -0.110821  0.001607  0.112789
 Variable       Old X    -DE/DX   Delta X   Delta X   Delta X     New X
                                 (Linear)    (Quad)   (Total)
    X1       -2.72161  -0.00475  -0.00038   0.02377   0.02710  -2.69451
    Y1       -0.19338   0.00430  -0.00008  -0.00701  -0.00940  -0.20278
    Z1        0.09653  -0.00115  -0.00069   0.00565   0.00695   0.10348
    X2       -3.63260   0.00354  -0.00018   0.00101   0.00078  -3.63182
    Y2        1.34597  -0.00528   0.00037  -0.03587  -0.03956   1.30640
    Z2       -0.33835   0.00087   0.00052  -0.05467  -0.05038  -0.38874
    X3       -0.88134   0.00124  -0.00032   0.02363   0.02641  -0.85492
    Y3       -0.00351   0.00103  -0.00002   0.03657   0.03787   0.03436
    Z3       -0.06841   0.00066   0.00037   0.07785   0.07732   0.00891
    X4        2.42401   0.00608   0.00060  -0.01192  -0.00843   2.41558
    Y4        0.05686  -0.00887  -0.00025   0.02218   0.02971   0.08657
    Z4       -0.04615   0.00077  -0.00095  -0.01712  -0.02419  -0.07034
    X5        3.30513  -0.00576   0.00068  -0.07830  -0.07132   3.23382
    Y5       -1.56689   0.00741  -0.00007  -0.01298  -0.00368  -1.57057
    Z5        0.05581  -0.00129   0.00065  -0.02159  -0.02865   0.02715
    X6        3.51711  -0.00035  -0.00039   0.02464   0.02545   3.54256
    Y6        1.42521   0.00142   0.00005  -0.02488  -0.01493   1.41028
    Z6        0.48366   0.00014   0.00010   0.02652   0.01895   0.50261
         Item               Value     Threshold  Converged?
 Maximum Force            0.008875     0.000450     NO 
 RMS     Force            0.004046     0.000300     NO 
 Maximum Displacement     0.077323     0.001800     NO 
 RMS     Displacement     0.034781     0.001200     NO 
 Predicted change in Energy=-2.223532D-04
 GradGradGradGradGradGradGradGradGradGradGradGradGradGradGradGradGradGrad

                          Input orientation:                          
 ---------------------------------------------------------------------
 Center     Atomic      Atomic             Coordinates (Angstroms)
 Number     Number       Type             X           Y           Z
 ---------------------------------------------------------------------
      1          8           0       -1.425873   -0.107306    0.054761
      2          1           0       -1.921874    0.691319   -0.205710
      3          1           0       -0.452405    0.018182    0.004714
      4          8           0        1.278270    0.045809   -0.037222
      5          1           0        1.711261   -0.831109    0.014369
      6          1           0        1.874641    0.746287    0.265968
 ---------------------------------------------------------------------
                    Distance matrix (angstroms):
                    1          2          3          4          5
     1  O    0.000000
     2  H    0.975532   0.000000
     3  H    0.982798   1.629948   0.000000
     4  O    2.710036   3.268944   1.731404   0.000000
     5  H    3.219804   3.945364   2.324402   0.979351   0.000000
     6  H    3.415644   3.826098   2.452250   0.968634   1.605669
                    6
     6  H    0.000000
 Stoichiometry    H4O2
 Framework group  C1[X(H4O2)]
 Deg. of freedom    12
 Full point group                 C1      NOp   1
 Largest Abelian subgroup         C1      NOp   1
 Largest concise Abelian subgroup C1      NOp   1
                         Standard orientation:                         
 ---------------------------------------------------------------------
 Center     Atomic      Atomic             Coordinates (Angstroms)
 Number     Number       Type             X           Y           Z
 ---------------------------------------------------------------------
      1          8           0       -1.428454   -0.101808    0.039530
      2          1           0       -1.916835    0.703723   -0.213981
      3          1           0       -0.453811    0.015604   -0.007138
      4          8           0        1.277131    0.028418   -0.045035
      5          1           0        1.702290   -0.852750   -0.001316
      6          1           0        1.878940    0.720545    0.266473
 ---------------------------------------------------------------------
 Rotational constants (GHZ):    245.5816407      7.2947310      7.1168037
 Standard basis: SDDAll (6D, 10F)
 There are    30 symmetry adapted cartesian basis functions of A   symmetry.
 There are    30 symmetry adapted basis functions of A   symmetry.
    30 basis functions,    54 primitive gaussians,    30 cartesian basis functions
     8 alpha electrons        8 beta electrons
       nuclear repulsion energy        26.1256625845 Hartrees.
 NAtoms=    6 NActive=    6 NUniq=    6 SFac= 1.00D+00 NAtFMM=   60 NAOKFM=F Big=F
 Integral buffers will be    131072 words long.
 Raffenetti 2 integral format.
 Two-electron integral symmetry is turned on.
 One-electron integrals computed using PRISM.
   1 Symmetry operations used in ECPInt.
 ECPInt:  NShTT=     171 NPrTT=     619 LenC2=     172 LenP2D=     564.
 LDataN:  DoStor=T MaxTD1= 4 Len=   56
 NBasis=    30 RedAO= T EigKep=  3.43D-02  NBF=    30
 NBsUse=    30 1.00D-06 EigRej= -1.00D+00 NBFU=    30
 Initial guess from the checkpoint file:  "/tmp/Gau-27720.chk"
 B after Tr=     0.000000    0.000000    0.000000
         Rot=    0.999995   -0.003128   -0.000207    0.001007 Ang=  -0.38 deg.
 ExpMin= 7.02D-02 ExpMax= 4.71D+01 ExpMxC= 4.71D+01 IAcc=2 IRadAn=         4 AccDes= 0.00D+00
 Harris functional with IExCor= 1009 and IRadAn=       4 diagonalized for initial guess.
 HarFok:  IExCor= 1009 AccDes= 0.00D+00 IRadAn=         4 IDoV= 1 UseB2=F ITyADJ=14
 ICtDFT=  3500011 ScaDFX=  1.000000  1.000000  1.000000  1.000000
 FoFCou: FMM=F IPFlag=           0 FMFlag=      100000 FMFlg1=           0
         NFxFlg=           0 DoJE=T BraDBF=F KetDBF=T FulRan=T
         wScrn=  0.000000 ICntrl=     500 IOpCl=  0 I1Cent=   200000004 NGrid=           0
         NMat0=    1 NMatS0=      1 NMatT0=    0 NMatD0=    1 NMtDS0=    0 NMtDT0=    0
 Petite list used in FoFCou.
 Keep R1 ints in memory in canonical form, NReq=1237769.
 Requested convergence on RMS density matrix=1.00D-08 within 512 cycles.
 Requested convergence on MAX density matrix=1.00D-06.
 Requested convergence on             energy=1.00D-06.
 No special actions if energy rises.
 Integral accuracy reduced to 1.0D-05 until final iterations.
 Initial convergence to 1.0D-05 achieved.  Increase integral accuracy.
 SCF Done:  E(RPBE1PBE) =  -34.4129794978     A.U. after   11 cycles
            NFock= 11  Conv=0.46D-08     -V/T= 2.2663
   1 Symmetry operations used in ECPInt.
 ECPInt:  NShTT=     171 NPrTT=     619 LenC2=     172 LenP2D=     564.
 LDataN:  DoStor=T MaxTD1= 5 Len=  102
 Calling FoFJK, ICntrl=      2127 FMM=F ISym2X=0 I1Cent= 0 IOpClX= 0 NMat=1 NMatS=1 NMatT=0.
 ***** Axes restored to original set *****
 -------------------------------------------------------------------
 Center     Atomic                   Forces (Hartrees/Bohr)
 Number     Number              X              Y              Z
 -------------------------------------------------------------------
      1        8          -0.006382110    0.005181309   -0.000785948
      2        1           0.004475227   -0.006317628    0.001418714
      3        1           0.001285564    0.001251760   -0.000841656
      4        8           0.006051738   -0.009069061    0.001759358
      5        1          -0.005109226    0.008019588   -0.001470974
      6        1          -0.000321193    0.000934032   -0.000079495
 -------------------------------------------------------------------
 Cartesian Forces:  Max     0.009069061 RMS     0.004407104

 GradGradGradGradGradGradGradGradGradGradGradGradGradGradGradGradGradGrad
 Berny optimization.
 Search for a local minimum.
 Step number   4 out of a maximum of  100
 All quantities printed in internal units (Hartrees-Bohrs-Radians)
 Update second derivatives using D2CorN and points    2    1    3    4
 The second derivative matrix:
                          X1        Y1        Z1        X2        Y2
           X1           0.65883
           Y1          -0.11766   0.47651
           Z1           0.01004  -0.12511   0.03973
           X2          -0.15807   0.15832  -0.03681   0.16093
           Y2           0.20103  -0.40511   0.10340  -0.19574   0.38116
           Z2          -0.05207   0.10522  -0.02812   0.04849  -0.09767
           X3          -0.49494  -0.04650   0.03246  -0.00549  -0.00053
           Y3          -0.08478  -0.06971   0.01975   0.03806   0.02251
           Z3           0.04333   0.02051  -0.01554  -0.01263  -0.00623
           X4          -0.00675   0.00180  -0.01578  -0.00194   0.00071
           Y4           0.00380  -0.00135   0.00399  -0.00038   0.00047
           Z4           0.00005  -0.00526   0.00827  -0.00072   0.00564
           X5          -0.00340   0.00573   0.00302   0.00452  -0.00646
           Y5          -0.00319  -0.00120  -0.00548  -0.00163   0.00321
           Z5          -0.00289   0.00401  -0.00421   0.00170  -0.00431
           X6           0.00433  -0.00170   0.00708   0.00005   0.00100
           Y6           0.00079   0.00086   0.00346   0.00138  -0.00224
           Z6           0.00155   0.00064  -0.00013  -0.00001  -0.00084
                          Z2        X3        Y3        Z3        X4
           Z2           0.02634
           X3          -0.00074   0.50338
           Y3          -0.00640   0.04608   0.04746
           Z3           0.00206  -0.03325  -0.01283   0.01976
           X4           0.00782  -0.00612   0.00235   0.01511   0.42583
           Y4          -0.00305   0.00167  -0.00063  -0.00211  -0.00053
           Z4          -0.00122   0.00339  -0.00163  -0.01195   0.14387
           X5           0.00024   0.00057  -0.00018  -0.00606  -0.17098
           Y5           0.00398  -0.00231   0.00018   0.00332   0.18493
           Z5           0.00175  -0.00169   0.00124   0.00435  -0.03923
           X6          -0.00373   0.00259  -0.00154  -0.00649  -0.24004
           Y6          -0.00208   0.00159   0.00018  -0.00267  -0.18926
           Z6          -0.00080  -0.00017  -0.00013   0.00132  -0.11178
                          Y4        Z4        X5        Y5        Z5
           Y4           0.70507
           Z4           0.08550   0.08280
           X5           0.21972  -0.03687   0.14327
           Y5          -0.39087   0.02133  -0.19172   0.40257
           Z5           0.04306  -0.01802   0.03393  -0.02936   0.01274
           X6          -0.22428  -0.10972   0.02602   0.01392   0.00819
           Y6          -0.31269  -0.10558  -0.02710  -0.01388  -0.01464
           Z6          -0.12740  -0.05987   0.00574   0.00621   0.00339
                          X6        Y6        Z6
           X6           0.20705
           Y6           0.21260   0.32778
           Z6           0.10469   0.12151   0.05610
 ITU=  0  0 -1  0
     Eigenvalues ---   -0.00102  -0.00006   0.00000   0.00000   0.00816
     Eigenvalues ---    0.03885   0.15259   0.15681   0.79599   0.85588
     Eigenvalues ---    1.07749   1.13004
 RFO step:  Lambda=-1.38320697D-03 EMin=-1.02032197D-03
 Quartic linear search produced a step of -0.17431.
 Maximum step size (   0.150) exceeded in Quadratic search.
    -- Step size scaled by   0.250
 TrRot=  0.003402  0.001823  0.008687  1.073560  0.005228 -1.074398
 Variable       Old X    -DE/DX   Delta X   Delta X   Delta X     New X
                                 (Linear)    (Quad)   (Total)
    X1       -2.69451  -0.00638  -0.00472  -0.01912  -0.02027  -2.71478
    Y1       -0.20278   0.00518   0.00164   0.00656   0.01292  -0.18986
    Z1        0.10348  -0.00079  -0.00121   0.02703   0.04217   0.14565
    X2       -3.63182   0.00448  -0.00014  -0.06919  -0.06594  -3.69776
    Y2        1.30640  -0.00632   0.00690  -0.04849  -0.03867   1.26773
    Z2       -0.38874   0.00142   0.00878  -0.05710  -0.03622  -0.42496
    X3       -0.85492   0.00129  -0.00460  -0.02638  -0.02753  -0.88246
    Y3        0.03436   0.00125  -0.00660   0.06295   0.05886   0.09322
    Z3        0.00891  -0.00084  -0.01348  -0.00870  -0.01170  -0.00279
    X4        2.41558   0.00605   0.00147   0.03405   0.03882   2.45440
    Y4        0.08657  -0.00907  -0.00518   0.00026  -0.00546   0.08111
    Z4       -0.07034   0.00176   0.00422   0.00217   0.00859  -0.06175
    X5        3.23382  -0.00511   0.01243   0.01195   0.02644   3.26026
    Y5       -1.57057   0.00802   0.00064  -0.00949  -0.00977  -1.58034
    Z5        0.02715  -0.00147   0.00499  -0.03549  -0.02266   0.00449
    X6        3.54256  -0.00032  -0.00444   0.04705   0.04849   3.59105
    Y6        1.41028   0.00093   0.00260  -0.02169  -0.01787   1.39241
    Z6        0.50261  -0.00008  -0.00330   0.02977   0.01983   0.52244
         Item               Value     Threshold  Converged?
 Maximum Force            0.009069     0.000450     NO 
 RMS     Force            0.004407     0.000300     NO 
 Maximum Displacement     0.065944     0.001800     NO 
 RMS     Displacement     0.033212     0.001200     NO 
 Predicted change in Energy=-1.885779D-04
 GradGradGradGradGradGradGradGradGradGradGradGradGradGradGradGradGradGrad

                          Input orientation:                          
 ---------------------------------------------------------------------
 Center     Atomic      Atomic             Coordinates (Angstroms)
 Number     Number       Type             X           Y           Z
 ---------------------------------------------------------------------
      1          8           0       -1.436602   -0.100471    0.077075
      2          1           0       -1.956770    0.670855   -0.224879
      3          1           0       -0.466976    0.049329   -0.001478
      4          8           0        1.298813    0.042920   -0.032675
      5          1           0        1.725255   -0.836280    0.002375
      6          1           0        1.900299    0.736829    0.276461
 ---------------------------------------------------------------------
                    Distance matrix (angstroms):
                    1          2          3          4          5
     1  O    0.000000
     2  H    0.978107   0.000000
     3  H    0.984269   1.629628   0.000000
     4  O    2.741369   3.321154   1.766076   0.000000
     5  H    3.247205   3.985023   2.364360   0.977791   0.000000
     6  H    3.446119   3.890074   2.480705   0.968948   1.606374
                    6
     6  H    0.000000
 Stoichiometry    H4O2
 Framework group  C1[X(H4O2)]
 Deg. of freedom    12
 Full point group                 C1      NOp   1
 Largest Abelian subgroup         C1      NOp   1
 Largest concise Abelian subgroup C1      NOp   1
                         Standard orientation:                         
 ---------------------------------------------------------------------
 Center     Atomic      Atomic             Coordinates (Angstroms)
 Number     Number       Type             X           Y           Z
 ---------------------------------------------------------------------
      1          8           0       -1.442504   -0.100961    0.046014
      2          1           0       -1.956332    0.677804   -0.247584
      3          1           0       -0.471559    0.044371   -0.024199
      4          8           0        1.294328    0.028190   -0.044413
      5          1           0        1.715515   -0.853896   -0.019891
      6          1           0        1.897785    0.713892    0.278870
 ---------------------------------------------------------------------
 Rotational constants (GHZ):    247.3332932      7.1227386      6.9600580
 Standard basis: SDDAll (6D, 10F)
 There are    30 symmetry adapted cartesian basis functions of A   symmetry.
 There are    30 symmetry adapted basis functions of A   symmetry.
    30 basis functions,    54 primitive gaussians,    30 cartesian basis functions
     8 alpha electrons        8 beta electrons
       nuclear repulsion energy        25.9582035504 Hartrees.
 NAtoms=    6 NActive=    6 NUniq=    6 SFac= 1.00D+00 NAtFMM=   60 NAOKFM=F Big=F
 Integral buffers will be    131072 words long.
 Raffenetti 2 integral format.
 Two-electron integral symmetry is turned on.
 One-electron integrals computed using PRISM.
   1 Symmetry operations used in ECPInt.
 ECPInt:  NShTT=     171 NPrTT=     619 LenC2=     172 LenP2D=     564.
 LDataN:  DoStor=T MaxTD1= 4 Len=   56
 NBasis=    30 RedAO= T EigKep=  3.60D-02  NBF=    30
 NBsUse=    30 1.00D-06 EigRej= -1.00D+00 NBFU=    30
 Initial guess from the checkpoint file:  "/tmp/Gau-27720.chk"
 B after Tr=     0.000000    0.000000    0.000000
         Rot=    0.999998    0.002085   -0.000085   -0.000245 Ang=   0.24 deg.
 ExpMin= 7.02D-02 ExpMax= 4.71D+01 ExpMxC= 4.71D+01 IAcc=2 IRadAn=         4 AccDes= 0.00D+00
 Harris functional with IExCor= 1009 and IRadAn=       4 diagonalized for initial guess.
 HarFok:  IExCor= 1009 AccDes= 0.00D+00 IRadAn=         4 IDoV= 1 UseB2=F ITyADJ=14
 ICtDFT=  3500011 ScaDFX=  1.000000  1.000000  1.000000  1.000000
 FoFCou: FMM=F IPFlag=           0 FMFlag=      100000 FMFlg1=           0
         NFxFlg=           0 DoJE=T BraDBF=F KetDBF=T FulRan=T
         wScrn=  0.000000 ICntrl=     500 IOpCl=  0 I1Cent=   200000004 NGrid=           0
         NMat0=    1 NMatS0=      1 NMatT0=    0 NMatD0=    1 NMtDS0=    0 NMtDT0=    0
 Petite list used in FoFCou.
 Keep R1 ints in memory in canonical form, NReq=1237769.
 Requested convergence on RMS density matrix=1.00D-08 within 512 cycles.
 Requested convergence on MAX density matrix=1.00D-06.
 Requested convergence on             energy=1.00D-06.
 No special actions if energy rises.
 Integral accuracy reduced to 1.0D-05 until final iterations.
 Initial convergence to 1.0D-05 achieved.  Increase integral accuracy.
 SCF Done:  E(RPBE1PBE) =  -34.4130453430     A.U. after   11 cycles
            NFock= 11  Conv=0.41D-08     -V/T= 2.2670
   1 Symmetry operations used in ECPInt.
 ECPInt:  NShTT=     171 NPrTT=     619 LenC2=     172 LenP2D=     564.
 LDataN:  DoStor=T MaxTD1= 5 Len=  102
 Calling FoFJK, ICntrl=      2127 FMM=F ISym2X=0 I1Cent= 0 IOpClX= 0 NMat=1 NMatS=1 NMatT=0.
 ***** Axes restored to original set *****
 -------------------------------------------------------------------
 Center     Atomic                   Forces (Hartrees/Bohr)
 Number     Number              X              Y              Z
 -------------------------------------------------------------------
      1        8          -0.005021547    0.007766651   -0.002428779
      2        1           0.005402640   -0.007762847    0.002429266
      3        1           0.000465895   -0.000373845    0.000072520
      4        8           0.004136632   -0.006962390    0.000976361
      5        1          -0.004603056    0.006953359   -0.000985043
      6        1          -0.000380565    0.000379072   -0.000064325
 -------------------------------------------------------------------
 Cartesian Forces:  Max     0.007766651 RMS     0.004245846

 GradGradGradGradGradGradGradGradGradGradGradGradGradGradGradGradGradGrad
 Berny optimization.
 Search for a local minimum.
 Step number   5 out of a maximum of  100
 All quantities printed in internal units (Hartrees-Bohrs-Radians)
 Update second derivatives using D2CorN and points    2    1    3    4    5

 DE= -6.58D-05 DEPred=-1.89D-04 R= 3.49D-01
 Trust test= 3.49D-01 RLast= 1.41D-01 DXMaxT set to 1.50D-01
 The second derivative matrix:
                          X1        Y1        Z1        X2        Y2
           X1           0.65833
           Y1          -0.11632   0.47455
           Z1           0.00980  -0.13011   0.04422
           X2          -0.15884   0.16718  -0.04357   0.17071
           Y2           0.19882  -0.39652   0.10449  -0.19933   0.36826
           Z2          -0.05279   0.11300  -0.03317   0.05575  -0.10182
           X3          -0.49528  -0.04406   0.03225  -0.00505  -0.00319
           Y3          -0.08335  -0.08038   0.02601   0.02972   0.02949
           Z3           0.04506   0.01567  -0.01430  -0.01374  -0.00104
           X4          -0.00655  -0.00387  -0.01399  -0.00690   0.00464
           Y4           0.00418  -0.00241   0.00474  -0.00078   0.00135
           Z4          -0.00136  -0.00332   0.00727  -0.00047   0.00345
           X5          -0.00344   0.00674   0.00432   0.00383  -0.00844
           Y5          -0.00368   0.00024  -0.00795   0.00060   0.00341
           Z5          -0.00323   0.00839  -0.00601   0.00413  -0.00781
           X6           0.00578  -0.00967   0.01118  -0.00375   0.00751
           Y6           0.00035   0.00452   0.00283   0.00262  -0.00598
           Z6           0.00252  -0.00363   0.00199  -0.00210   0.00274
                          Z2        X3        Y3        Z3        X4
           Z2           0.03152
           X3          -0.00086   0.50318
           Y3          -0.01215   0.04633   0.05333
           Z3           0.00157  -0.03274  -0.01351   0.01836
           X4           0.00548  -0.00687   0.00587   0.01628   0.43041
           Y4          -0.00355   0.00199  -0.00051  -0.00257  -0.00112
           Z4          -0.00081   0.00335  -0.00098  -0.01068   0.14210
           X5          -0.00101   0.00024   0.00109  -0.00630  -0.16985
           Y5           0.00638  -0.00236  -0.00200   0.00351   0.18425
           Z5           0.00318  -0.00227  -0.00017   0.00479  -0.03880
           X6          -0.00657   0.00379   0.00034  -0.00855  -0.24024
           Y6          -0.00186   0.00129   0.00008  -0.00207  -0.18977
           Z6          -0.00230   0.00026   0.00079   0.00026  -0.11106
                          Y4        Z4        X5        Y5        Z5
           Y4           0.70525
           Z4           0.08603   0.08083
           X5           0.21974  -0.03558   0.14226
           Y5          -0.39122   0.02019  -0.19111   0.40295
           Z5           0.04280  -0.01776   0.03265  -0.02788   0.01272
           X6          -0.22401  -0.10803   0.02696   0.01230   0.00753
           Y6          -0.31244  -0.10538  -0.02802  -0.01337  -0.01533
           Z6          -0.12746  -0.05884   0.00592   0.00575   0.00308
                          X6        Y6        Z6
           X6           0.20746
           Y6           0.21354   0.32718
           Z6           0.10445   0.12181   0.05581
 ITU=  0  0  0 -1  0
     Eigenvalues ---   -0.00051  -0.00010   0.00000   0.00487   0.01221
     Eigenvalues ---    0.03791   0.15254   0.15719   0.79728   0.85539
     Eigenvalues ---    1.07687   1.12851
 RFO step:  Lambda=-7.46615403D-04 EMin=-5.08876316D-04
 Quartic linear search produced a step of -0.24737.
 Maximum step size (   0.150) exceeded in Quadratic search.
    -- Step size scaled by   0.250
 TrRot=  0.000807  0.005140 -0.002819  1.261965 -0.004507 -1.258711
 Variable       Old X    -DE/DX   Delta X   Delta X   Delta X     New X
                                 (Linear)    (Quad)   (Total)
    X1       -2.71478  -0.00502   0.00502  -0.02223  -0.01589  -2.73067
    Y1       -0.18986   0.00777  -0.00320  -0.01383  -0.02130  -0.21117
    Z1        0.14565  -0.00243  -0.01043  -0.00881  -0.02673   0.11892
    X2       -3.69776   0.00540   0.01631  -0.00830   0.00528  -3.69248
    Y2        1.26773  -0.00776   0.00957  -0.01013  -0.00570   1.26204
    Z2       -0.42496   0.00243   0.00896   0.00958   0.01606  -0.40890
    X3       -0.88246   0.00047   0.00681  -0.02075  -0.01331  -0.89577
    Y3        0.09322  -0.00037  -0.01456  -0.02125  -0.03359   0.05963
    Z3       -0.00279   0.00007   0.00289   0.00184   0.00092  -0.00187
    X4        2.45440   0.00414  -0.00960   0.02307   0.01394   2.46835
    Y4        0.08111  -0.00696   0.00135   0.03903   0.05381   0.13492
    Z4       -0.06175   0.00098  -0.00213   0.00210   0.00109  -0.06066
    X5        3.26026  -0.00460  -0.00654  -0.07971  -0.08032   3.17994
    Y5       -1.58034   0.00695   0.00242  -0.00961   0.00819  -1.57215
    Z5        0.00449  -0.00099   0.00561   0.01385   0.01422   0.01871
    X6        3.59105  -0.00038  -0.01199   0.10669   0.09030   3.68135
    Y6        1.39241   0.00038   0.00442  -0.02074  -0.00140   1.39100
    Z6        0.52244  -0.00006  -0.00491  -0.00883  -0.00556   0.51688
         Item               Value     Threshold  Converged?
 Maximum Force            0.007767     0.000450     NO 
 RMS     Force            0.004246     0.000300     NO 
 Maximum Displacement     0.090302     0.001800     NO 
 RMS     Displacement     0.034193     0.001200     NO 
 Predicted change in Energy=-1.468032D-04
 GradGradGradGradGradGradGradGradGradGradGradGradGradGradGradGradGradGrad

                          Input orientation:                          
 ---------------------------------------------------------------------
 Center     Atomic      Atomic             Coordinates (Angstroms)
 Number     Number       Type             X           Y           Z
 ---------------------------------------------------------------------
      1          8           0       -1.445008   -0.111745    0.062932
      2          1           0       -1.953978    0.667841   -0.216382
      3          1           0       -0.474021    0.031552   -0.000992
      4          8           0        1.306192    0.071395   -0.032099
      5          1           0        1.682750   -0.831948    0.009900
      6          1           0        1.948085    0.736087    0.273520
 ---------------------------------------------------------------------
                    Distance matrix (angstroms):
                    1          2          3          4          5
     1  O    0.000000
     2  H    0.972018   0.000000
     3  H    0.983583   1.625277   0.000000
     4  O    2.758926   3.319400   1.780931   0.000000
     5  H    3.210043   3.940350   2.323234   0.979586   0.000000
     6  H    3.503747   3.933288   2.537385   0.973265   1.612028
                    6
     6  H    0.000000
 Stoichiometry    H4O2
 Framework group  C1[X(H4O2)]
 Deg. of freedom    12
 Full point group                 C1      NOp   1
 Largest Abelian subgroup         C1      NOp   1
 Largest concise Abelian subgroup C1      NOp   1
                         Standard orientation:                         
 ---------------------------------------------------------------------
 Center     Atomic      Atomic             Coordinates (Angstroms)
 Number     Number       Type             X           Y           Z
 ---------------------------------------------------------------------
      1          8           0       -1.451868   -0.098768    0.042312
      2          1           0       -1.945194    0.695175   -0.224341
      3          1           0       -0.478175    0.026976   -0.017238
      4          8           0        1.302540    0.033214   -0.044227
      5          1           0        1.661646   -0.877777   -0.017264
      6          1           0        1.956345    0.680058    0.274169
 ---------------------------------------------------------------------
 Rotational constants (GHZ):    247.7009551      7.0470147      6.8845761
 Standard basis: SDDAll (6D, 10F)
 There are    30 symmetry adapted cartesian basis functions of A   symmetry.
 There are    30 symmetry adapted basis functions of A   symmetry.
    30 basis functions,    54 primitive gaussians,    30 cartesian basis functions
     8 alpha electrons        8 beta electrons
       nuclear repulsion energy        25.8966753774 Hartrees.
 NAtoms=    6 NActive=    6 NUniq=    6 SFac= 1.00D+00 NAtFMM=   60 NAOKFM=F Big=F
 Integral buffers will be    131072 words long.
 Raffenetti 2 integral format.
 Two-electron integral symmetry is turned on.
 One-electron integrals computed using PRISM.
   1 Symmetry operations used in ECPInt.
 ECPInt:  NShTT=     171 NPrTT=     619 LenC2=     172 LenP2D=     564.
 LDataN:  DoStor=T MaxTD1= 4 Len=   56
 NBasis=    30 RedAO= T EigKep=  3.56D-02  NBF=    30
 NBsUse=    30 1.00D-06 EigRej= -1.00D+00 NBFU=    30
 Initial guess from the checkpoint file:  "/tmp/Gau-27720.chk"
 B after Tr=     0.000000    0.000000    0.000000
         Rot=    0.999973   -0.006971   -0.000207    0.002448 Ang=  -0.85 deg.
 ExpMin= 7.02D-02 ExpMax= 4.71D+01 ExpMxC= 4.71D+01 IAcc=2 IRadAn=         4 AccDes= 0.00D+00
 Harris functional with IExCor= 1009 and IRadAn=       4 diagonalized for initial guess.
 HarFok:  IExCor= 1009 AccDes= 0.00D+00 IRadAn=         4 IDoV= 1 UseB2=F ITyADJ=14
 ICtDFT=  3500011 ScaDFX=  1.000000  1.000000  1.000000  1.000000
 FoFCou: FMM=F IPFlag=           0 FMFlag=      100000 FMFlg1=           0
         NFxFlg=           0 DoJE=T BraDBF=F KetDBF=T FulRan=T
         wScrn=  0.000000 ICntrl=     500 IOpCl=  0 I1Cent=   200000004 NGrid=           0
         NMat0=    1 NMatS0=      1 NMatT0=    0 NMatD0=    1 NMtDS0=    0 NMtDT0=    0
 Petite list used in FoFCou.
 Keep R1 ints in memory in canonical form, NReq=1237769.
 Requested convergence on RMS density matrix=1.00D-08 within 512 cycles.
 Requested convergence on MAX density matrix=1.00D-06.
 Requested convergence on             energy=1.00D-06.
 No special actions if energy rises.
 Integral accuracy reduced to 1.0D-05 until final iterations.
 Initial convergence to 1.0D-05 achieved.  Increase integral accuracy.
 SCF Done:  E(RPBE1PBE) =  -34.4129996786     A.U. after   11 cycles
            NFock= 11  Conv=0.62D-08     -V/T= 2.2670
   1 Symmetry operations used in ECPInt.
 ECPInt:  NShTT=     171 NPrTT=     619 LenC2=     172 LenP2D=     564.
 LDataN:  DoStor=T MaxTD1= 5 Len=  102
 Calling FoFJK, ICntrl=      2127 FMM=F ISym2X=0 I1Cent= 0 IOpClX= 0 NMat=1 NMatS=1 NMatT=0.
 ***** Axes restored to original set *****
 -------------------------------------------------------------------
 Center     Atomic                   Forces (Hartrees/Bohr)
 Number     Number              X              Y              Z
 -------------------------------------------------------------------
      1        8          -0.001676801    0.002462264   -0.000569670
      2        1           0.002739126   -0.003379912    0.000662268
      3        1           0.000102494    0.001665619   -0.000006659
      4        8           0.005798401   -0.007138788    0.002268627
      5        1          -0.003670002    0.008760973   -0.001032403
      6        1          -0.003293218   -0.002370155   -0.001322163
 -------------------------------------------------------------------
 Cartesian Forces:  Max     0.008760973 RMS     0.003579105

 GradGradGradGradGradGradGradGradGradGradGradGradGradGradGradGradGradGrad
 Berny optimization.
 Search for a local minimum.
 Step number   6 out of a maximum of  100
 All quantities printed in internal units (Hartrees-Bohrs-Radians)
 Update second derivatives using D2CorN and points    2    1    3    4    6
                                                          5
 DE=  4.57D-05 DEPred=-1.47D-04 R=-3.11D-01
 Trust test=-3.11D-01 RLast= 1.45D-01 DXMaxT set to 7.50D-02
 The second derivative matrix:
                          X1        Y1        Z1        X2        Y2
           X1           0.66001
           Y1          -0.11563   0.47023
           Z1           0.01154  -0.13297   0.04657
           X2          -0.15972   0.16842  -0.04562   0.17214
           Y2           0.19946  -0.39446   0.10731  -0.20096   0.36751
           Z2          -0.05414   0.11424  -0.03478   0.05699  -0.10341
           X3          -0.49480  -0.04435   0.03240  -0.00528  -0.00333
           Y3          -0.08044  -0.08308   0.02865   0.02796   0.03264
           Z3           0.04551   0.01730  -0.01499  -0.01282  -0.00226
           X4          -0.00678  -0.00261  -0.01360  -0.00742   0.00493
           Y4           0.00034   0.00125   0.00232   0.00115  -0.00242
           Z4          -0.00155  -0.00387   0.00813  -0.00136   0.00460
           X5           0.00175  -0.00038   0.00763   0.00117  -0.00291
           Y5          -0.00323   0.00246  -0.00698   0.00052   0.00345
           Z5          -0.00405   0.01018  -0.00648   0.00479  -0.00934
           X6          -0.00046  -0.00545   0.00764  -0.00090   0.00281
           Y6          -0.00050   0.00360   0.00167   0.00291  -0.00671
           Z6           0.00267  -0.00488   0.00155  -0.00198   0.00310
                          Z2        X3        Y3        Z3        X4
           Z2           0.03264
           X3          -0.00102   0.50277
           Y3          -0.01401   0.04649   0.05616
           Z3           0.00189  -0.03292  -0.01414   0.01889
           X4           0.00527  -0.00655   0.00725   0.01683   0.43091
           Y4          -0.00148   0.00207  -0.00415  -0.00277  -0.00353
           Z4          -0.00133   0.00400   0.00059  -0.01052   0.14066
           X5          -0.00371  -0.00042   0.00449  -0.00730  -0.16582
           Y5           0.00578  -0.00138   0.00017   0.00425   0.18310
           Z5           0.00364  -0.00237  -0.00092   0.00467  -0.03880
           X6          -0.00339   0.00428  -0.00575  -0.00930  -0.24434
           Y6          -0.00113   0.00049  -0.00175  -0.00238  -0.18913
           Z6          -0.00207  -0.00009  -0.00017   0.00006  -0.11035
                          Y4        Z4        X5        Y5        Z5
           Y4           0.70964
           Z4           0.08470   0.07966
           X5           0.21638  -0.03176   0.14217
           Y5          -0.39496   0.01874  -0.18486   0.40161
           Z5           0.04330  -0.01776   0.03197  -0.02838   0.01258
           X6          -0.21641  -0.10999   0.02115   0.00584   0.00846
           Y6          -0.30936  -0.10475  -0.03273  -0.01274  -0.01484
           Z6          -0.12607  -0.05817   0.00316   0.00659   0.00334
                          X6        Y6        Z6
           X6           0.22027
           Y6           0.21896   0.32695
           Z6           0.10658   0.12143   0.05530
 ITU= -1  0  0  0 -1  0
 Energy rises -- skip Quadratic search.
 Quartic linear search produced a step of -0.60472.
 TrRot=  0.000000  0.000000  0.000000  0.000000  0.000000  0.000000
 Variable       Old X    -DE/DX   Delta X   Delta X   Delta X     New X
                                 (Linear)    (Quad)   (Total)
    X1       -2.73067  -0.00168   0.00961   0.00000   0.00961  -2.72106
    Y1       -0.21117   0.00246   0.01288   0.00000   0.01288  -0.19828
    Z1        0.11892  -0.00057   0.01616   0.00000   0.01616   0.13509
    X2       -3.69248   0.00274  -0.00319   0.00000  -0.00319  -3.69567
    Y2        1.26204  -0.00338   0.00344   0.00000   0.00344   1.26548
    Z2       -0.40890   0.00066  -0.00971   0.00000  -0.00971  -0.41861
    X3       -0.89577   0.00010   0.00805   0.00000   0.00805  -0.88772
    Y3        0.05963   0.00167   0.02031   0.00000   0.02031   0.07994
    Z3       -0.00187  -0.00001  -0.00056   0.00000  -0.00056  -0.00243
    X4        2.46835   0.00580  -0.00843   0.00000  -0.00843   2.45991
    Y4        0.13492  -0.00714  -0.03254   0.00000  -0.03254   0.10238
    Z4       -0.06066   0.00227  -0.00066   0.00000  -0.00066  -0.06132
    X5        3.17994  -0.00367   0.04857   0.00000   0.04857   3.22851
    Y5       -1.57215   0.00876  -0.00495   0.00000  -0.00495  -1.57711
    Z5        0.01871  -0.00103  -0.00860   0.00000  -0.00860   0.01011
    X6        3.68135  -0.00329  -0.05461   0.00000  -0.05461   3.62674
    Y6        1.39100  -0.00237   0.00085   0.00000   0.00085   1.39185
    Z6        0.51688  -0.00132   0.00336   0.00000   0.00336   0.52024
         Item               Value     Threshold  Converged?
 Maximum Force            0.008761     0.000450     NO 
 RMS     Force            0.003579     0.000300     NO 
 Maximum Displacement     0.054607     0.001800     NO 
 RMS     Displacement     0.020677     0.001200     NO 
 Predicted change in Energy=-3.453922D-05
 GradGradGradGradGradGradGradGradGradGradGradGradGradGradGradGradGradGrad

                          Input orientation:                          
 ---------------------------------------------------------------------
 Center     Atomic      Atomic             Coordinates (Angstroms)
 Number     Number       Type             X           Y           Z
 ---------------------------------------------------------------------
      1          8           0       -1.439925   -0.104927    0.071484
      2          1           0       -1.955666    0.669664   -0.221520
      3          1           0       -0.469761    0.042302   -0.001286
      4          8           0        1.301730    0.054176   -0.032447
      5          1           0        1.708454   -0.834568    0.005350
      6          1           0        1.919188    0.736536    0.275299
 ---------------------------------------------------------------------
                    Distance matrix (angstroms):
                    1          2          3          4          5
     1  O    0.000000
     2  H    0.975618   0.000000
     3  H    0.983966   1.627882   0.000000
     4  O    2.748233   3.320422   1.771805   0.000000
     5  H    3.232497   3.967362   2.348098   0.978120   0.000000
     6  H    3.468896   3.907147   2.503105   0.970349   1.607995
                    6
     6  H    0.000000
 Stoichiometry    H4O2
 Framework group  C1[X(H4O2)]
 Deg. of freedom    12
 Full point group                 C1      NOp   1
 Largest Abelian subgroup         C1      NOp   1
 Largest concise Abelian subgroup C1      NOp   1
                         Standard orientation:                         
 ---------------------------------------------------------------------
 Center     Atomic      Atomic             Coordinates (Angstroms)
 Number     Number       Type             X           Y           Z
 ---------------------------------------------------------------------
      1          8           0       -1.446176   -0.100100    0.044553
      2          1           0       -1.951950    0.684733   -0.238400
      3          1           0       -0.474114    0.037485   -0.021441
      4          8           0        1.297528    0.030179   -0.044344
      5          1           0        1.694239   -0.863515   -0.018882
      6          1           0        1.921013    0.700659    0.277058
 ---------------------------------------------------------------------
 Rotational constants (GHZ):    247.5014097      7.0931295      6.9305065
 Standard basis: SDDAll (6D, 10F)
 There are    30 symmetry adapted cartesian basis functions of A   symmetry.
 There are    30 symmetry adapted basis functions of A   symmetry.
    30 basis functions,    54 primitive gaussians,    30 cartesian basis functions
     8 alpha electrons        8 beta electrons
       nuclear repulsion energy        25.9367465093 Hartrees.
 NAtoms=    6 NActive=    6 NUniq=    6 SFac= 1.00D+00 NAtFMM=   60 NAOKFM=F Big=F
 Integral buffers will be    131072 words long.
 Raffenetti 2 integral format.
[...]
           Y6           0.20756   0.32328
           Z6           0.12319   0.15688   0.10579
 ITU=  0 -1  0  0 -1  0 -1  0  0 -1  1  0 -1  0 -1  1  1  0  0
     Eigenvalues ---    0.00117   0.00235   0.00500   0.01159   0.03196
     Eigenvalues ---    0.05294   0.16249   0.19078   0.70402   0.84367
     Eigenvalues ---    1.08852   1.11820
 RFO step:  Lambda=-4.19347538D-08 EMin= 1.16873725D-03
 Quartic linear search produced a step of -0.45201.
 TrRot=  0.000056  0.000089 -0.000023 -0.000024  0.000051 -0.000024
 MatCor failed.
 Variable       Old X    -DE/DX   Delta X   Delta X   Delta X     New X
                                 (Linear)    (Quad)   (Total)
    X1       -2.68310  -0.00003  -0.00029   0.00048   0.00029  -2.68281
    Y1        0.21253  -0.00001  -0.00283   0.00047  -0.00214   0.21039
    Z1        0.55581   0.00000  -0.00117   0.00024  -0.00082   0.55499
    X2       -3.60320   0.00002   0.00000  -0.00016  -0.00011  -3.60331
    Y2        0.86787  -0.00001   0.00053  -0.00106  -0.00027   0.86760
    Z2       -0.88268   0.00001   0.00023  -0.00006   0.00033  -0.88236
    X3       -0.84617   0.00002   0.00003   0.00039   0.00050  -0.84567
    Y3        0.18064   0.00003   0.00112   0.00062   0.00187   0.18252
    Z3        0.25736  -0.00001   0.00041  -0.00046  -0.00003   0.25733
    X4        2.40235   0.00005   0.00013  -0.00020  -0.00002   2.40234
    Y4        0.05936  -0.00001   0.00126  -0.00017   0.00106   0.06043
    Z4       -0.09657   0.00002   0.00057  -0.00040   0.00002  -0.09655
    X5        3.25634  -0.00001  -0.00264   0.00031  -0.00238   3.25396
    Y5       -1.53262   0.00006  -0.00035   0.00012  -0.00030  -1.53292
    Z5       -0.38928   0.00001   0.00145  -0.00011   0.00115  -0.38813
    X6        3.48448  -0.00005   0.00276  -0.00120   0.00172   3.48620
    Y6        1.27647  -0.00007   0.00027  -0.00042  -0.00023   1.27624
    Z6        0.73845  -0.00004  -0.00149   0.00104  -0.00065   0.73779
         Item               Value     Threshold  Converged?
 Maximum Force            0.000068     0.000450     YES
 RMS     Force            0.000033     0.000300     YES
 Maximum Displacement     0.002378     0.001800     NO 
 RMS     Displacement     0.001078     0.001200     YES
 Predicted change in Energy=-2.099740D-08
 GradGradGradGradGradGradGradGradGradGradGradGradGradGradGradGradGradGrad

                          Input orientation:                          
 ---------------------------------------------------------------------
 Center     Atomic      Atomic             Coordinates (Angstroms)
 Number     Number       Type             X           Y           Z
 ---------------------------------------------------------------------
      1          8           0       -1.419683    0.111335    0.293689
      2          1           0       -1.906790    0.459115   -0.466924
      3          1           0       -0.447508    0.096583    0.136173
      4          8           0        1.271261    0.031976   -0.051091
      5          1           0        1.721924   -0.811184   -0.205390
      6          1           0        1.844816    0.675358    0.390423
 ---------------------------------------------------------------------
                    Distance matrix (angstroms):
                    1          2          3          4          5
     1  O    0.000000
     2  H    0.967861   0.000000
     3  H    0.984964   1.620080   0.000000
     4  O    2.714103   3.233478   1.730147   0.000000
     5  H    3.312072   3.853521   2.376372   0.968413   0.000000
     6  H    3.314277   3.854394   2.377892   0.968421   1.606208
                    6
     6  H    0.000000
 Stoichiometry    H4O2
 Framework group  C1[X(H4O2)]
 Deg. of freedom    12
 Full point group                 C1      NOp   1
 Largest Abelian subgroup         C1      NOp   1
 Largest concise Abelian subgroup C1      NOp   1
                         Standard orientation:                         
 ---------------------------------------------------------------------
 Center     Atomic      Atomic             Coordinates (Angstroms)
 Number     Number       Type             X           Y           Z
 ---------------------------------------------------------------------
      1          8           0       -1.431391   -0.000895    0.113400
      2          1           0       -1.882439    0.006135   -0.742907
      3          1           0       -0.451234    0.000387    0.016222
      4          8           0        1.277377    0.000389   -0.056682
      5          1           0        1.781696   -0.804334    0.132810
      6          1           0        1.784089    0.801855    0.140129
 ---------------------------------------------------------------------
 Rotational constants (GHZ):    241.1621853      7.2343556      7.1824811
 Standard basis: SDDAll (6D, 10F)
 There are    30 symmetry adapted cartesian basis functions of A   symmetry.
 There are    30 symmetry adapted basis functions of A   symmetry.
    30 basis functions,    54 primitive gaussians,    30 cartesian basis functions
     8 alpha electrons        8 beta electrons
       nuclear repulsion energy        26.1899203567 Hartrees.
 NAtoms=    6 NActive=    6 NUniq=    6 SFac= 1.00D+00 NAtFMM=   60 NAOKFM=F Big=F
 Integral buffers will be    131072 words long.
 Raffenetti 2 integral format.
 Two-electron integral symmetry is turned on.
 One-electron integrals computed using PRISM.
   1 Symmetry operations used in ECPInt.
 ECPInt:  NShTT=     171 NPrTT=     619 LenC2=     172 LenP2D=     566.
 LDataN:  DoStor=T MaxTD1= 4 Len=   56
 NBasis=    30 RedAO= T EigKep=  3.45D-02  NBF=    30
 NBsUse=    30 1.00D-06 EigRej= -1.00D+00 NBFU=    30
 Initial guess from the checkpoint file:  "/tmp/Gau-27720.chk"
 B after Tr=     0.000000    0.000000    0.000000
         Rot=    0.999998   -0.001842   -0.000005    0.000060 Ang=  -0.21 deg.
 Keep R1 ints in memory in canonical form, NReq=1237769.
 Requested convergence on RMS density matrix=1.00D-08 within 512 cycles.
 Requested convergence on MAX density matrix=1.00D-06.
 Requested convergence on             energy=1.00D-06.
 No special actions if energy rises.
 SCF Done:  E(RPBE1PBE) =  -34.4139095929     A.U. after    7 cycles
            NFock=  7  Conv=0.44D-08     -V/T= 2.2648
   1 Symmetry operations used in ECPInt.
 ECPInt:  NShTT=     171 NPrTT=     619 LenC2=     172 LenP2D=     566.
 LDataN:  DoStor=T MaxTD1= 5 Len=  102
 Calling FoFJK, ICntrl=      2127 FMM=F ISym2X=0 I1Cent= 0 IOpClX= 0 NMat=1 NMatS=1 NMatT=0.
 ***** Axes restored to original set *****
 -------------------------------------------------------------------
 Center     Atomic                   Forces (Hartrees/Bohr)
 Number     Number              X              Y              Z
 -------------------------------------------------------------------
      1        8          -0.000023310    0.000000296    0.000005874
      2        1           0.000008480   -0.000001261   -0.000002711
      3        1           0.000013790    0.000006782   -0.000004232
      4        8           0.000014088   -0.000001284    0.000007622
      5        1           0.000000065    0.000006270   -0.000001008
      6        1          -0.000013113   -0.000010803   -0.000005544
 -------------------------------------------------------------------
 Cartesian Forces:  Max     0.000023310 RMS     0.000009222

 GradGradGradGradGradGradGradGradGradGradGradGradGradGradGradGradGradGrad
 Berny optimization.
 Search for a local minimum.
 Step number  54 out of a maximum of  100
 All quantities printed in internal units (Hartrees-Bohrs-Radians)
 Update second derivatives using D2CorN and points   36   37   39   38   41
                                                         40   42   44   43   45

                                                         47   46   49   53   54
 DE= -3.21D-08 DEPred=-2.10D-08 R= 1.53D+00
 Trust test= 1.53D+00 RLast= 4.57D-03 DXMaxT set to 5.00D-02
 The second derivative matrix:
                          X1        Y1        Z1        X2        Y2
           X1           0.67319
           Y1          -0.08931   0.12089
           Z1           0.09222  -0.17174   0.33556
           X2          -0.15824   0.07074  -0.13098   0.16103
           Y2           0.12226  -0.09828   0.15061  -0.09907   0.09683
           Z2          -0.17002   0.15159  -0.28377   0.16231  -0.15053
           X3          -0.48461   0.00887   0.04750  -0.00657  -0.01327
           Y3          -0.01306  -0.03922   0.02418   0.02022   0.01253
           Z3           0.11013   0.00658  -0.05166  -0.04582   0.01485
           X4          -0.01712  -0.01822  -0.01306  -0.00224   0.01851
           Y4           0.01564   0.03717  -0.00583  -0.00806  -0.00799
           Z4          -0.00356  -0.01043   0.00653   0.00252   0.00931
           X5          -0.01868   0.01433  -0.00416   0.00826  -0.01422
           Y5          -0.00218  -0.03050  -0.01075   0.01332   0.01196
           Z5          -0.04210   0.05479  -0.05069   0.02824  -0.04621
           X6           0.00547   0.01360   0.00848  -0.00223  -0.01421
           Y6          -0.03334   0.00995   0.01354   0.00285  -0.01505
           Z6           0.01333  -0.03079   0.04403  -0.01627   0.02197
                          Z2        X3        Y3        Z3        X4
           Z2           0.26867
           X3           0.00050   0.48678
           Y3          -0.00694  -0.00568   0.04075
           Z3           0.00616  -0.06245  -0.01129   0.06834
           X4           0.00411   0.00211   0.01144   0.01976   0.42587
           Y4          -0.01799  -0.00776  -0.04454   0.00002  -0.02557
           Z4          -0.00813   0.00407   0.00097  -0.01205   0.12842
           X5           0.00252   0.00701  -0.00485  -0.01011  -0.16685
           Y5           0.01710  -0.00693   0.02617   0.00804   0.18411
           Z5           0.05020   0.00446  -0.02279  -0.01195  -0.02203
           X6           0.00057  -0.00472  -0.00808  -0.01152  -0.24177
           Y6           0.00676   0.02477   0.00430  -0.01820  -0.17027
           Z6          -0.03312   0.00591   0.01587   0.00116  -0.11722
                          Y4        Z4        X5        Y5        Z5
           Y4           0.68503
           Z4           0.21060   0.14251
           X5           0.21749   0.01781   0.14156
           Y5          -0.38253  -0.05722  -0.18269   0.40952
           Z5          -0.01639  -0.03212   0.00352   0.03705   0.06502
           X6          -0.19174  -0.14926   0.02870  -0.00562   0.02791
           Y6          -0.28715  -0.15322  -0.03006  -0.03463  -0.00646
           Z6          -0.17041  -0.09674  -0.00957   0.00578  -0.02047
                          X6        Y6        Z6
           X6           0.21455
           Y6           0.20605   0.32258
           Z6           0.12382   0.15758   0.10514
 ITU=  0  0 -1  0  0 -1  0 -1  0  0 -1  1  0 -1  0 -1  1  1  0
     Eigenvalues ---    0.00118   0.00239   0.00629   0.01096   0.03154
     Eigenvalues ---    0.05208   0.16250   0.19098   0.70430   0.84351
     Eigenvalues ---    1.08889   1.11806
 RFO step:  Lambda=-1.02472310D-08 EMin= 1.18174288D-03
 Quartic linear search produced a step of -0.12730.
 TrRot=  0.000000  0.000126  0.000038 -0.000035  0.000037 -0.000035
 Variable       Old X    -DE/DX   Delta X   Delta X   Delta X     New X
                                 (Linear)    (Quad)   (Total)
    X1       -2.68281  -0.00002  -0.00004   0.00010   0.00010  -2.68271
    Y1        0.21039   0.00000   0.00027   0.00069   0.00127   0.21167
    Z1        0.55499   0.00001   0.00010   0.00030   0.00054   0.55553
    X2       -3.60331   0.00001   0.00001  -0.00001   0.00003  -3.60328
    Y2        0.86760   0.00000   0.00003  -0.00097  -0.00056   0.86704
    Z2       -0.88236   0.00000  -0.00004  -0.00039  -0.00026  -0.88261
    X3       -0.84567   0.00001  -0.00006   0.00004   0.00000  -0.84567
    Y3        0.18252   0.00001  -0.00024  -0.00013  -0.00018   0.18233
    Z3        0.25733   0.00000   0.00000  -0.00007   0.00000   0.25733
    X4        2.40234   0.00001   0.00000  -0.00004  -0.00004   2.40229
    Y4        0.06043   0.00000  -0.00014  -0.00026  -0.00044   0.05998
    Z4       -0.09655   0.00001   0.00000  -0.00019  -0.00024  -0.09679
    X5        3.25396   0.00000   0.00030   0.00074   0.00092   3.25489
    Y5       -1.53292   0.00001   0.00004   0.00024   0.00018  -1.53274
    Z5       -0.38813   0.00000  -0.00015  -0.00056  -0.00079  -0.38892
    X6        3.48620  -0.00001  -0.00022  -0.00092  -0.00102   3.48518
    Y6        1.27624  -0.00001   0.00003  -0.00018  -0.00027   1.27597
    Z6        0.73779  -0.00001   0.00008   0.00075   0.00075   0.73854
         Item               Value     Threshold  Converged?
 Maximum Force            0.000023     0.000450     YES
 RMS     Force            0.000009     0.000300     YES
 Maximum Displacement     0.001274     0.001800     YES
 RMS     Displacement     0.000566     0.001200     YES
 Predicted change in Energy=-8.041044D-09
 Optimization completed.
    -- Stationary point found.
 GradGradGradGradGradGradGradGradGradGradGradGradGradGradGradGradGradGrad

                          Input orientation:                          
 ---------------------------------------------------------------------
 Center     Atomic      Atomic             Coordinates (Angstroms)
 Number     Number       Type             X           Y           Z
 ---------------------------------------------------------------------
      1          8           0       -1.419683    0.111335    0.293689
      2          1           0       -1.906790    0.459115   -0.466924
      3          1           0       -0.447508    0.096583    0.136173
      4          8           0        1.271261    0.031976   -0.051091
      5          1           0        1.721924   -0.811184   -0.205390
      6          1           0        1.844816    0.675358    0.390423
 ---------------------------------------------------------------------
                    Distance matrix (angstroms):
                    1          2          3          4          5
     1  O    0.000000
     2  H    0.967861   0.000000
     3  H    0.984964   1.620080   0.000000
     4  O    2.714103   3.233478   1.730147   0.000000
     5  H    3.312072   3.853521   2.376372   0.968413   0.000000
     6  H    3.314277   3.854394   2.377892   0.968421   1.606208
                    6
     6  H    0.000000
 Stoichiometry    H4O2
 Framework group  C1[X(H4O2)]
 Deg. of freedom    12
 Full point group                 C1      NOp   1
 Largest Abelian subgroup         C1      NOp   1
 Largest concise Abelian subgroup C1      NOp   1
                         Standard orientation:                         
 ---------------------------------------------------------------------
 Center     Atomic      Atomic             Coordinates (Angstroms)
 Number     Number       Type             X           Y           Z
 ---------------------------------------------------------------------
      1          8           0       -1.431391   -0.000895    0.113400
      2          1           0       -1.882439    0.006135   -0.742907
      3          1           0       -0.451234    0.000387    0.016222
      4          8           0        1.277377    0.000389   -0.056682
      5          1           0        1.781696   -0.804334    0.132810
      6          1           0        1.784089    0.801855    0.140129
 ---------------------------------------------------------------------
 Rotational constants (GHZ):    241.1621853      7.2343556      7.1824811

 **********************************************************************

            Population analysis using the SCF density.

 **********************************************************************

 Orbital symmetries:
       Occupied  (A) (A) (A) (A) (A) (A) (A) (A)
       Virtual   (A) (A) (A) (A) (A) (A) (A) (A) (A) (A) (A) (A)
                 (A) (A) (A) (A) (A) (A) (A) (A) (A) (A)
 The electronic state is 1-A.
 Alpha  occ. eigenvalues --   -1.08709  -1.00041  -0.60742  -0.53478  -0.42879
 Alpha  occ. eigenvalues --   -0.36800  -0.33071  -0.28577
 Alpha virt. eigenvalues --    0.02940   0.08690   0.09431   0.11986   0.15436
 Alpha virt. eigenvalues --    0.16345   0.18738   0.23285   0.24291   0.32578
 Alpha virt. eigenvalues --    0.88764   1.01305   1.09582   1.11771   1.14704
 Alpha virt. eigenvalues --    1.17206   1.19457   1.22526   1.26278   1.29625
 Alpha virt. eigenvalues --    2.00841   2.52545
          Condensed to atoms (all electrons):
               1          2          3          4          5          6
     1  O    6.314055   0.281154   0.277255  -0.018550   0.000272   0.000270
     2  H    0.281154   0.359683  -0.023540   0.001612  -0.000013  -0.000013
     3  H    0.277255  -0.023540   0.281304  -0.000695   0.000681   0.000684
     4  O   -0.018550   0.001612  -0.000695   6.314408   0.280603   0.280576
     5  H    0.000272  -0.000013   0.000681   0.280603   0.306679  -0.021683
     6  H    0.000270  -0.000013   0.000684   0.280576  -0.021683   0.306645
 Mulliken charges:
               1
     1  O   -0.854456
     2  H    0.381116
     3  H    0.464312
     4  O   -0.857954
     5  H    0.433461
     6  H    0.433521
 Sum of Mulliken charges =   0.00000
 Mulliken charges with hydrogens summed into heavy atoms:
               1
     1  O   -0.009028
     4  O    0.009028
 Electronic spatial extent (au):  <R**2>=            148.0836
 Charge=              0.0000 electrons
 Dipole moment (field-independent basis, Debye):
    X=              4.2402    Y=              0.0117    Z=             -1.2729  Tot=              4.4271
 Quadrupole moment (field-independent basis, Debye-Ang):
   XX=             -9.1098   YY=            -11.8608   ZZ=            -14.1109
   XY=             -0.0437   XZ=              5.9484   YZ=              0.0041
 Traceless Quadrupole moment (field-independent basis, Debye-Ang):
   XX=              2.5841   YY=             -0.1670   ZZ=             -2.4171
   XY=             -0.0437   XZ=              5.9484   YZ=              0.0041
 Octapole moment (field-independent basis, Debye-Ang**2):
  XXX=             17.7480  YYY=             -0.0003  ZZZ=             -1.3529  XYY=              7.5802
  XXY=              0.0612  XXZ=             -5.2899  XZZ=             -1.2602  YZZ=              0.0094
  YYZ=              0.0024  XYZ=              0.0496
 Hexadecapole moment (field-independent basis, Debye-Ang**3):
 XXXX=           -140.5696 YYYY=            -14.9377 ZZZZ=            -16.7034 XXXY=             -0.1343
 XXXZ=             22.7112 YYYX=             -0.0433 YYYZ=              0.0096 ZZZX=              5.3050
 ZZZY=             -0.0031 XXYY=            -24.6525 XXZZ=            -30.7713 YYZZ=             -5.6670
 XXYZ=              0.0122 YYXZ=              1.9669 ZZXY=             -0.0141
 N-N= 2.618992035668D+01 E-N=-1.345715893823D+02  KE= 2.721004872526D+01
 1\1\GINC-HUMAN\FOpt\RPBE1PBE\SDDAll\H4O2\HUMAN\25-Jul-2019\0\\# PBE1PB
 E/SDDAll scf=(maxcycle=512) opt=(cartesian,maxcycle=512)\\Cellular Aut
 omata job -34.4128104423\\0,1\O,-1.4196830916,0.1113353805,0.293688784
 9\H,-1.9067902049,0.4591149209,-0.4669239478\H,-0.4475078202,0.0965828
 875,0.1361728536\O,1.2712614567,0.0319756592,-0.0510905499\H,1.7219240
 578,-0.8111844772,-0.205390284\H,1.8448156023,0.6753576289,0.390423142
 3\\Version=ES64L-G09RevD.01\State=1-A\HF=-34.4139096\RMSD=4.443e-09\RM
 SF=9.222e-06\Dipole=1.6398193,0.1014397,-0.57834\Quadrupole=2.2915961,
 -0.1733053,-2.1182908,-1.7533776,3.8516364,0.4835245\PG=C01 [X(H4O2)]\
 \@


 THE SECRET OF SUCCESS IN LIFE IS TO EAT WHAT YOU LIKE, AND LET THE FOOD
 FIGHT IT OUT INSIDE YOU. -- FROM A FORTUNE COOKIE
 Job cpu time:       0 days  0 hours  4 minutes 58.8 seconds.
 File lengths (MBytes):  RWF=      5 Int=      0 D2E=      0 Chk=      1 Scr=      1
 Normal termination of Gaussian 09 at Thu Jul 25 18:23:05 2019.
