 Entering Gaussian System, Link 0=g09
 Input=Kick0003-opt.com
 Output=Kick0003-opt.log
 Initial command:
 /home/human/g09/l1.exe "/tmp/Gau-27842.inp" -scrdir="/tmp/"
 Entering Link 1 = /home/human/g09/l1.exe PID=     27844.
  
 Copyright (c) 1988,1990,1992,1993,1995,1998,2003,2009,2013,
            Gaussian, Inc.  All Rights Reserved.
  
 This is part of the Gaussian(R) 09 program.  It is based on
 the Gaussian(R) 03 system (copyright 2003, Gaussian, Inc.),
 the Gaussian(R) 98 system (copyright 1998, Gaussian, Inc.),
 the Gaussian(R) 94 system (copyright 1995, Gaussian, Inc.),
 the Gaussian 92(TM) system (copyright 1992, Gaussian, Inc.),
 the Gaussian 90(TM) system (copyright 1990, Gaussian, Inc.),
 the Gaussian 88(TM) system (copyright 1988, Gaussian, Inc.),
 the Gaussian 86(TM) system (copyright 1986, Carnegie Mellon
 University), and the Gaussian 82(TM) system (copyright 1983,
 Carnegie Mellon University). Gaussian is a federally registered
 trademark of Gaussian, Inc.
  
 This software contains proprietary and confidential information,
 including trade secrets, belonging to Gaussian, Inc.
  
 This software is provided under written license and may be
 used, copied, transmitted, or stored only in accord with that
 written license.
  
 The following legend is applicable only to US Government
 contracts under FAR:
  
                    RESTRICTED RIGHTS LEGEND
  
 Use, reproduction and disclosure by the US Government is
 subject to restrictions as set forth in subparagraphs (a)
 and (c) of the Commercial Computer Software - Restricted
 Rights clause in FAR 52.227-19.
  
 Gaussian, Inc.
 340 Quinnipiac St., Bldg. 40, Wallingford CT 06492
  
  
 ---------------------------------------------------------------
 Warning -- This program may not be used in any manner that
 competes with the business of Gaussian, Inc. or will provide
 assistance to any competitor of Gaussian, Inc.  The licensee
 of this program is prohibited from giving any competitor of
 Gaussian, Inc. access to this program.  By using this program,
 the user acknowledges that Gaussian, Inc. is engaged in the
 business of creating and licensing software in the field of
 computational chemistry and represents and warrants to the
 licensee that it is not a competitor of Gaussian, Inc. and that
 it will not use this program in any manner prohibited above.
 ---------------------------------------------------------------
  

 Cite this work as:
 Gaussian 09, Revision D.01,
 M. J. Frisch, G. W. Trucks, H. B. Schlegel, G. E. Scuseria, 
 M. A. Robb, J. R. Cheeseman, G. Scalmani, V. Barone, B. Mennucci, 
 G. A. Petersson, H. Nakatsuji, M. Caricato, X. Li, H. P. Hratchian, 
 A. F. Izmaylov, J. Bloino, G. Zheng, J. L. Sonnenberg, M. Hada, 
 M. Ehara, K. Toyota, R. Fukuda, J. Hasegawa, M. Ishida, T. Nakajima, 
 Y. Honda, O. Kitao, H. Nakai, T. Vreven, J. A. Montgomery, Jr., 
 J. E. Peralta, F. Ogliaro, M. Bearpark, J. J. Heyd, E. Brothers, 
 K. N. Kudin, V. N. Staroverov, T. Keith, R. Kobayashi, J. Normand, 
 K. Raghavachari, A. Rendell, J. C. Burant, S. S. Iyengar, J. Tomasi, 
 M. Cossi, N. Rega, J. M. Millam, M. Klene, J. E. Knox, J. B. Cross, 
 V. Bakken, C. Adamo, J. Jaramillo, R. Gomperts, R. E. Stratmann, 
 O. Yazyev, A. J. Austin, R. Cammi, C. Pomelli, J. W. Ochterski, 
 R. L. Martin, K. Morokuma, V. G. Zakrzewski, G. A. Voth, 
 P. Salvador, J. J. Dannenberg, S. Dapprich, A. D. Daniels, 
 O. Farkas, J. B. Foresman, J. V. Ortiz, J. Cioslowski, 
 and D. J. Fox, Gaussian, Inc., Wallingford CT, 2013.
 
 ******************************************
 Gaussian 09:  ES64L-G09RevD.01 24-Apr-2013
                25-Jul-2019 
 ******************************************
 %NProc=4
 Will use up to    4 processors via shared memory.
 %mem=4GB
 ----------------------------------------------------------------
 # PBE1PBE/SDDAll scf=(maxcycle=512) opt=(cartesian,maxcycle=512)
 ----------------------------------------------------------------
 1/6=512,10=7,14=-1,18=10,26=3,38=1/1,3;
 2/12=2,17=6,18=5,29=2,40=1/2;
 3/5=17,6=6,11=2,16=1,25=1,30=1,71=1,74=-13/1,2,3;
 4//1;
 5/5=2,7=512,38=5/2;
 6/7=2,8=2,9=2,10=2,28=1/1;
 7/7=1,29=1/1,2,3,16;
 1/6=512,10=7,14=-1,18=10,26=3/3(2);
 2/29=1/2;
 99/12=1/99;
 2/29=1/2;
 3/5=17,6=6,11=2,16=1,25=1,30=1,71=1,74=-13/1,2,3;
 4/5=5,16=3,69=1/1;
 5/5=2,7=512,38=5/2;
 7/7=1/1,2,3,16;
 1/6=512,14=-1,18=10,26=3/3(-5);
 2/29=1/2;
 6/7=2,8=2,9=2,10=2,19=2,28=1/1;
 99/9=1,12=1/99;
 ------------------------------------
 Cellular Automata job -34.4117758606
 ------------------------------------
 Symbolic Z-matrix:
 Charge =  0 Multiplicity = 1
 8                    -1.24943  -0.02264   0.0041 
 1                    -1.43757   0.9205   -0.03569 
 1                    -2.07771  -0.5453    0.11123 
 8                     1.4213   -0.00349  -0.09992 
 1                     0.4566   -0.23103  -0.15767 
 1                     1.6837    0.06485   0.84869 
 

 GradGradGradGradGradGradGradGradGradGradGradGradGradGradGradGradGradGrad
 Berny optimization.
 Initialization pass.
 No Z-matrix variables, so optimization will use Cartesian coordinates.
 Trust Radius=3.00D-01 FncErr=1.00D-07 GrdErr=1.00D-06
 Number of steps in this run=    100 maximum allowed number of steps=    100.
 GradGradGradGradGradGradGradGradGradGradGradGradGradGradGradGradGradGrad

 ---------------------------------------------------------------------------------------------------
                            Z-MATRIX (ANGSTROMS AND DEGREES)
   CD    Cent   Atom    N1       Length/X        N2       Alpha/Y        N3        Beta/Z          J
 ---------------------------------------------------------------------------------------------------
      1      1  O        0  -1.249427         -0.022638          0.004102
      2      2  H        0  -1.437573          0.920502         -0.035694
      3      3  H        0  -2.077707         -0.545304          0.111232
      4      4  O        0   1.421301         -0.003489         -0.099922
      5      5  H        0   0.456596         -0.231034         -0.157666
      6      6  H        0   1.683696          0.064852          0.848693
 ---------------------------------------------------------------------------------------------------
                         Z-Matrix orientation:                         
 ---------------------------------------------------------------------
 Center     Atomic      Atomic             Coordinates (Angstroms)
 Number     Number       Type             X           Y           Z
 ---------------------------------------------------------------------
      1          8           0       -1.249427   -0.022638    0.004102
      2          1           0       -1.437573    0.920502   -0.035694
      3          1           0       -2.077707   -0.545304    0.111232
      4          8           0        1.421301   -0.003489   -0.099922
      5          1           0        0.456596   -0.231034   -0.157666
      6          1           0        1.683696    0.064852    0.848693
 ---------------------------------------------------------------------
                    Distance matrix (angstroms):
                    1          2          3          4          5
     1  O    0.000000
     2  H    0.962546   0.000000
     3  H    0.985243   1.606221   0.000000
     4  O    2.672822   3.005170   3.547000   0.000000
     5  H    1.726300   2.220088   2.567832   0.992858   0.000000
     6  H    3.053555   3.355085   3.881274   0.986606   1.614336
                    6
     6  H    0.000000
 Stoichiometry    H4O2
 Framework group  C1[X(H4O2)]
 Deg. of freedom    12
 Full point group                 C1      NOp   1
 Largest Abelian subgroup         C1      NOp   1
 Largest concise Abelian subgroup C1      NOp   1
                         Standard orientation:                         
 ---------------------------------------------------------------------
 Center     Atomic      Atomic             Coordinates (Angstroms)
 Number     Number       Type             X           Y           Z
 ---------------------------------------------------------------------
      1          8           0       -1.249427   -0.022638    0.004102
      2          1           0       -1.437573    0.920502   -0.035694
      3          1           0       -2.077707   -0.545304    0.111232
      4          8           0        1.421301   -0.003489   -0.099922
      5          1           0        0.456596   -0.231034   -0.157666
      6          1           0        1.683696    0.064852    0.848693
 ---------------------------------------------------------------------
 Rotational constants (GHZ):    239.8262409      7.4717550      7.4355506
 Standard basis: SDDAll (6D, 10F)
 There are    30 symmetry adapted cartesian basis functions of A   symmetry.
 There are    30 symmetry adapted basis functions of A   symmetry.
    30 basis functions,    54 primitive gaussians,    30 cartesian basis functions
     8 alpha electrons        8 beta electrons
       nuclear repulsion energy        26.2911900570 Hartrees.
 NAtoms=    6 NActive=    6 NUniq=    6 SFac= 1.00D+00 NAtFMM=   60 NAOKFM=F Big=F
 Integral buffers will be    131072 words long.
 Raffenetti 2 integral format.
 Two-electron integral symmetry is turned on.
 One-electron integrals computed using PRISM.
   1 Symmetry operations used in ECPInt.
 ECPInt:  NShTT=     171 NPrTT=     619 LenC2=     172 LenP2D=     566.
 LDataN:  DoStor=T MaxTD1= 4 Len=   56
 NBasis=    30 RedAO= T EigKep=  3.48D-02  NBF=    30
 NBsUse=    30 1.00D-06 EigRej= -1.00D+00 NBFU=    30
 ExpMin= 7.02D-02 ExpMax= 4.71D+01 ExpMxC= 4.71D+01 IAcc=2 IRadAn=         4 AccDes= 0.00D+00
 Harris functional with IExCor= 1009 and IRadAn=       4 diagonalized for initial guess.
 HarFok:  IExCor= 1009 AccDes= 0.00D+00 IRadAn=         4 IDoV= 1 UseB2=F ITyADJ=14
 ICtDFT=  3500011 ScaDFX=  1.000000  1.000000  1.000000  1.000000
 FoFCou: FMM=F IPFlag=           0 FMFlag=      100000 FMFlg1=           0
         NFxFlg=           0 DoJE=T BraDBF=F KetDBF=T FulRan=T
         wScrn=  0.000000 ICntrl=     500 IOpCl=  0 I1Cent=   200000004 NGrid=           0
         NMat0=    1 NMatS0=      1 NMatT0=    0 NMatD0=    1 NMtDS0=    0 NMtDT0=    0
 Petite list used in FoFCou.
 Keep R1 ints in memory in canonical form, NReq=1237769.
 Requested convergence on RMS density matrix=1.00D-08 within 512 cycles.
 Requested convergence on MAX density matrix=1.00D-06.
 Requested convergence on             energy=1.00D-06.
 No special actions if energy rises.
 Integral accuracy reduced to 1.0D-05 until final iterations.
 Initial convergence to 1.0D-05 achieved.  Increase integral accuracy.
 SCF Done:  E(RPBE1PBE) =  -34.4117758584     A.U. after   12 cycles
            NFock= 12  Conv=0.45D-08     -V/T= 2.2685

 **********************************************************************

            Population analysis using the SCF density.

 **********************************************************************

 Orbital symmetries:
       Occupied  (A) (A) (A) (A) (A) (A) (A) (A)
       Virtual   (A) (A) (A) (A) (A) (A) (A) (A) (A) (A) (A) (A)
                 (A) (A) (A) (A) (A) (A) (A) (A) (A) (A)
 The electronic state is 1-A.
 Alpha  occ. eigenvalues --   -1.08610  -0.99881  -0.60487  -0.52663  -0.43098
 Alpha  occ. eigenvalues --   -0.36878  -0.33384  -0.28702
 Alpha virt. eigenvalues --    0.02528   0.08507   0.09212   0.11904   0.15006
 Alpha virt. eigenvalues --    0.16977   0.18584   0.21988   0.25332   0.31745
 Alpha virt. eigenvalues --    0.88794   1.02459   1.08679   1.11175   1.13177
 Alpha virt. eigenvalues --    1.16728   1.20648   1.24110   1.26984   1.29110
 Alpha virt. eigenvalues --    2.03031   2.41726
          Condensed to atoms (all electrons):
               1          2          3          4          5          6
     1  O    6.335001   0.282274   0.273465  -0.017030  -0.000139   0.000533
     2  H    0.282274   0.312349  -0.022006  -0.000244   0.000027  -0.000005
     3  H    0.273465  -0.022006   0.298531   0.001408   0.001321  -0.000017
     4  O   -0.017030  -0.000244   0.001408   6.312657   0.271810   0.276425
     5  H   -0.000139   0.000027   0.001321   0.271810   0.285432  -0.024611
     6  H    0.000533  -0.000005  -0.000017   0.276425  -0.024611   0.369608
 Mulliken charges:
               1
     1  O   -0.874104
     2  H    0.427605
     3  H    0.447298
     4  O   -0.845026
     5  H    0.466160
     6  H    0.378067
 Sum of Mulliken charges =   0.00000
 Mulliken charges with hydrogens summed into heavy atoms:
               1
     1  O    0.000800
     4  O   -0.000800
 Electronic spatial extent (au):  <R**2>=            144.4303
 Charge=              0.0000 electrons
 Dipole moment (field-independent basis, Debye):
    X=             -4.5710    Y=              0.5543    Z=              2.1264  Tot=              5.0718
 Quadrupole moment (field-independent basis, Debye-Ang):
   XX=            -10.2306   YY=            -12.1748   ZZ=            -13.6503
   XY=             -0.2934   XZ=              3.5484   YZ=             -0.0005
 Traceless Quadrupole moment (field-independent basis, Debye-Ang):
   XX=              1.7880   YY=             -0.1562   ZZ=             -1.6317
   XY=             -0.2934   XZ=              3.5484   YZ=             -0.0005
 Octapole moment (field-independent basis, Debye-Ang**2):
  XXX=            -24.6560  YYY=              1.4480  ZZZ=              2.1215  XYY=             -6.2898
  XXY=             -0.5204  XXZ=              8.4564  XZZ=              1.9386  YZZ=              0.1304
  YYZ=              0.4390  XYZ=              0.8206
 Hexadecapole moment (field-independent basis, Debye-Ang**3):
 XXXX=           -139.1420 YYYY=            -15.0749 ZZZZ=            -16.0866 XXXY=              7.4200
 XXXZ=             12.1860 YYYX=             -1.4520 YYYZ=             -0.0799 ZZZX=              4.0217
 ZZZY=              0.1206 XXYY=            -26.2200 XXZZ=            -29.4515 YYZZ=             -5.6932
 XXYZ=             -0.3862 YYXZ=              0.7591 ZZXY=              0.1512
 N-N= 2.629119005703D+01 E-N=-1.347076422042D+02  KE= 2.712768086314D+01
   1 Symmetry operations used in ECPInt.
 ECPInt:  NShTT=     171 NPrTT=     619 LenC2=     172 LenP2D=     566.
 LDataN:  DoStor=T MaxTD1= 5 Len=  102
 Calling FoFJK, ICntrl=      2127 FMM=F ISym2X=0 I1Cent= 0 IOpClX= 0 NMat=1 NMatS=1 NMatT=0.
 ***** Axes restored to original set *****
 -------------------------------------------------------------------
 Center     Atomic                   Forces (Hartrees/Bohr)
 Number     Number              X              Y              Z
 -------------------------------------------------------------------
      1        8          -0.014283367   -0.013201621    0.003345761
      2        1          -0.001193185    0.007391883   -0.001242483
      3        1           0.013483892    0.006170217   -0.002363932
      4        8          -0.002594527   -0.001079351    0.015419841
      5        1           0.006848937    0.002089969    0.000136729
      6        1          -0.002261749   -0.001371096   -0.015295917
 -------------------------------------------------------------------
 Cartesian Forces:  Max     0.015419841 RMS     0.008200600

 GradGradGradGradGradGradGradGradGradGradGradGradGradGradGradGradGradGrad
 Berny optimization.
 Search for a local minimum.
 Step number   1 out of a maximum of  100
 All quantities printed in internal units (Hartrees-Bohrs-Radians)
 Second derivative matrix not updated -- first step.
 The second derivative matrix:
                          X1        Y1        Z1        X2        Y2
           X1           0.48558
           Y1           0.07344   0.68868
           Z1          -0.04873  -0.04829   0.00736
           X2          -0.09173   0.13522   0.00020   0.06710
           Y2           0.09140  -0.52151   0.02316  -0.09621   0.52912
           Z2           0.00285   0.01916  -0.00142  -0.00031  -0.02318
           X3          -0.39385  -0.20865   0.04853   0.02463   0.00481
           Y3          -0.16484  -0.16717   0.02513  -0.03901  -0.00761
           Z3           0.04589   0.02913  -0.00595   0.00011   0.00002
           X4           0.00000   0.00000   0.00000   0.00000   0.00000
           Y4           0.00000   0.00000   0.00000   0.00000   0.00000
           Z4           0.00000   0.00000   0.00000   0.00000   0.00000
           X5           0.00000   0.00000   0.00000   0.00000   0.00000
           Y5           0.00000   0.00000   0.00000   0.00000   0.00000
           Z5           0.00000   0.00000   0.00000   0.00000   0.00000
           X6           0.00000   0.00000   0.00000   0.00000   0.00000
           Y6           0.00000   0.00000   0.00000   0.00000   0.00000
           Z6           0.00000   0.00000   0.00000   0.00000   0.00000
                          Z2        X3        Y3        Z3        X4
           Z2           0.00143
           X3          -0.00254   0.36922
           Y3           0.00402   0.20385   0.17478
           Z3          -0.00001  -0.04599  -0.02915   0.00596
           X4           0.00000   0.00000   0.00000   0.00000   0.54323
           Y4           0.00000   0.00000   0.00000   0.00000   0.12858
           Z4           0.00000   0.00000   0.00000   0.00000   0.09788
           X5           0.00000   0.00000   0.00000   0.00000  -0.46493
           Y5           0.00000   0.00000   0.00000   0.00000  -0.10935
           Z5           0.00000   0.00000   0.00000   0.00000   0.01772
           X6           0.00000   0.00000   0.00000   0.00000  -0.07830
           Y6           0.00000   0.00000   0.00000   0.00000  -0.01924
           Z6           0.00000   0.00000   0.00000   0.00000  -0.11560
                          Y4        Z4        X5        Y5        Z5
           Y4           0.03046
           Z4           0.02677   0.53889
           X5          -0.10964  -0.02430   0.46244
           Y5          -0.02579  -0.00613   0.10906   0.02572
           Z5           0.00376  -0.05950   0.02503   0.00622   0.04695
           X6          -0.01894  -0.07358   0.00249   0.00029  -0.04275
           Y6          -0.00467  -0.02064   0.00058   0.00007  -0.00998
           Z6          -0.03053  -0.47939  -0.00073  -0.00009   0.01255
                          X6        Y6        Z6
           X6           0.07581
           Y6           0.01865   0.00460
           Z6           0.11633   0.03062   0.46684
 ITU=  0
     Eigenvalues ---    0.00000   0.00000   0.00000   0.00000   0.00000
     Eigenvalues ---    0.00000   0.14553   0.15639   0.78473   0.85425
     Eigenvalues ---    1.03068   1.10124
 RFO step:  Lambda=-3.45844030D-03 EMin=-1.44328993D-15
 Linear search not attempted -- first point.
 Maximum step size (   0.300) exceeded in Quadratic search.
    -- Step size scaled by   0.369
 TrRot=  0.000097 -0.000079  0.017553  0.891823  0.007669 -0.896786
 Variable       Old X    -DE/DX   Delta X   Delta X   Delta X     New X
                                 (Linear)    (Quad)   (Total)
    X1       -2.36107  -0.01428   0.00000  -0.05232  -0.05176  -2.41283
    Y1       -0.04278  -0.01320   0.00000   0.03801   0.05048   0.00770
    Z1        0.00775   0.00335   0.00000   0.08195   0.11108   0.11883
    X2       -2.71662  -0.00119   0.00000  -0.16271  -0.15468  -2.87130
    Y2        1.73950   0.00739   0.00000   0.01311   0.02631   1.76581
    Z2       -0.06745  -0.00124   0.00000  -0.10000  -0.07916  -0.14662
    X3       -3.92630   0.01348   0.00000  -0.00186  -0.00658  -3.93288
    Y3       -1.03048   0.00617   0.00000  -0.06027  -0.04016  -1.07063
    Z3        0.21020  -0.00236   0.00000  -0.10875  -0.06586   0.14434
    X4        2.68587  -0.00259   0.00000   0.05772   0.05666   2.74253
    Y4       -0.00659  -0.00108   0.00000  -0.02576  -0.04064  -0.04723
    Z4       -0.18883   0.01542   0.00000  -0.00314   0.00148  -0.18734
    X5        0.86284   0.00685   0.00000   0.03909   0.03610   0.89894
    Y5       -0.43659   0.00209   0.00000   0.06303   0.05696  -0.37964
    Z5       -0.29795   0.00014   0.00000   0.04428   0.05976  -0.23818
    X6        3.18172  -0.00226   0.00000   0.11227   0.12026   3.30198
    Y6        0.12255  -0.00137   0.00000  -0.04587  -0.05295   0.06960
    Z6        1.60380  -0.01530   0.00000  -0.02858  -0.02730   1.57650
         Item               Value     Threshold  Converged?
 Maximum Force            0.015420     0.000450     NO 
 RMS     Force            0.008201     0.000300     NO 
 Maximum Displacement     0.154681     0.001800     NO 
 RMS     Displacement     0.068895     0.001200     NO 
 Predicted change in Energy=-1.180911D-03
 GradGradGradGradGradGradGradGradGradGradGradGradGradGradGradGradGradGrad

                          Input orientation:                          
 ---------------------------------------------------------------------
 Center     Atomic      Atomic             Coordinates (Angstroms)
 Number     Number       Type             X           Y           Z
 ---------------------------------------------------------------------
      1          8           0       -1.276817    0.004075    0.062883
      2          1           0       -1.519426    0.934425   -0.077586
      3          1           0       -2.081188   -0.566555    0.076381
      4          8           0        1.451285   -0.024995   -0.099137
      5          1           0        0.475698   -0.200894   -0.126042
      6          1           0        1.747334    0.036833    0.834247
 ---------------------------------------------------------------------
                    Distance matrix (angstroms):
                    1          2          3          4          5
     1  O    0.000000
     2  H    0.971669   0.000000
     3  H    0.986313   1.610037   0.000000
     4  O    2.733064   3.121871   3.578053   0.000000
     5  H    1.774546   2.296044   2.590820   0.991683   0.000000
     6  H    3.121148   3.508395   3.949179   0.981159   1.611126
                    6
     6  H    0.000000
 Stoichiometry    H4O2
 Framework group  C1[X(H4O2)]
 Deg. of freedom    12
 Full point group                 C1      NOp   1
 Largest Abelian subgroup         C1      NOp   1
 Largest concise Abelian subgroup C1      NOp   1
                         Standard orientation:                         
 ---------------------------------------------------------------------
 Center     Atomic      Atomic             Coordinates (Angstroms)
 Number     Number       Type             X           Y           Z
 ---------------------------------------------------------------------
      1          8           0       -1.277995   -0.020631    0.025649
      2          1           0       -1.533532    0.915898   -0.016251
      3          1           0       -2.073447   -0.600818   -0.033094
      4          8           0        1.451871    0.007150   -0.103584
      5          1           0        0.479514   -0.178747   -0.161899
      6          1           0        1.736455   -0.028489    0.834720
 ---------------------------------------------------------------------
 Rotational constants (GHZ):    238.3676678      7.1518977      7.1139845
 Standard basis: SDDAll (6D, 10F)
 There are    30 symmetry adapted cartesian basis functions of A   symmetry.
 There are    30 symmetry adapted basis functions of A   symmetry.
    30 basis functions,    54 primitive gaussians,    30 cartesian basis functions
     8 alpha electrons        8 beta electrons
       nuclear repulsion energy        25.9824122462 Hartrees.
 NAtoms=    6 NActive=    6 NUniq=    6 SFac= 1.00D+00 NAtFMM=   60 NAOKFM=F Big=F
 Integral buffers will be    131072 words long.
 Raffenetti 2 integral format.
 Two-electron integral symmetry is turned on.
 One-electron integrals computed using PRISM.
   1 Symmetry operations used in ECPInt.
 ECPInt:  NShTT=     171 NPrTT=     619 LenC2=     172 LenP2D=     564.
 LDataN:  DoStor=T MaxTD1= 4 Len=   56
 NBasis=    30 RedAO= T EigKep=  3.65D-02  NBF=    30
 NBsUse=    30 1.00D-06 EigRej= -1.00D+00 NBFU=    30
 Initial guess from the checkpoint file:  "/tmp/Gau-27844.chk"
 B after Tr=     0.000000    0.000000    0.000000
         Rot=    0.998852   -0.047854   -0.000380   -0.002217 Ang=  -5.49 deg.
 ExpMin= 7.02D-02 ExpMax= 4.71D+01 ExpMxC= 4.71D+01 IAcc=2 IRadAn=         4 AccDes= 0.00D+00
 Harris functional with IExCor= 1009 and IRadAn=       4 diagonalized for initial guess.
 HarFok:  IExCor= 1009 AccDes= 0.00D+00 IRadAn=         4 IDoV= 1 UseB2=F ITyADJ=14
 ICtDFT=  3500011 ScaDFX=  1.000000  1.000000  1.000000  1.000000
 FoFCou: FMM=F IPFlag=           0 FMFlag=      100000 FMFlg1=           0
         NFxFlg=           0 DoJE=T BraDBF=F KetDBF=T FulRan=T
         wScrn=  0.000000 ICntrl=     500 IOpCl=  0 I1Cent=   200000004 NGrid=           0
         NMat0=    1 NMatS0=      1 NMatT0=    0 NMatD0=    1 NMtDS0=    0 NMtDT0=    0
 Petite list used in FoFCou.
 Keep R1 ints in memory in canonical form, NReq=1237769.
 Requested convergence on RMS density matrix=1.00D-08 within 512 cycles.
 Requested convergence on MAX density matrix=1.00D-06.
 Requested convergence on             energy=1.00D-06.
 No special actions if energy rises.
 Integral accuracy reduced to 1.0D-05 until final iterations.
 Initial convergence to 1.0D-05 achieved.  Increase integral accuracy.
 SCF Done:  E(RPBE1PBE) =  -34.4125107044     A.U. after   11 cycles
            NFock= 11  Conv=0.59D-08     -V/T= 2.2695
   1 Symmetry operations used in ECPInt.
 ECPInt:  NShTT=     171 NPrTT=     619 LenC2=     172 LenP2D=     564.
 LDataN:  DoStor=T MaxTD1= 5 Len=  102
 Calling FoFJK, ICntrl=      2127 FMM=F ISym2X=0 I1Cent= 0 IOpClX= 0 NMat=1 NMatS=1 NMatT=0.
 ***** Axes restored to original set *****
 -------------------------------------------------------------------
 Center     Atomic                   Forces (Hartrees/Bohr)
 Number     Number              X              Y              Z
 -------------------------------------------------------------------
      1        8          -0.014456753   -0.006028198   -0.000330411
      2        1           0.001082885   -0.001087286    0.000006866
      3        1           0.013756026    0.007247774   -0.000264547
      4        8          -0.004721381   -0.001129491    0.010963259
      5        1           0.006091716    0.001854575    0.000354804
      6        1          -0.001752494   -0.000857373   -0.010729970
 -------------------------------------------------------------------
 Cartesian Forces:  Max     0.014456753 RMS     0.006637447

 GradGradGradGradGradGradGradGradGradGradGradGradGradGradGradGradGradGrad
 Berny optimization.
 Search for a local minimum.
 Step number   2 out of a maximum of  100
 All quantities printed in internal units (Hartrees-Bohrs-Radians)
 Update second derivatives using D2CorN and points    1    2
 DE= -7.35D-04 DEPred=-1.18D-03 R= 6.22D-01
 TightC=F SS=  1.41D+00  RLast= 2.92D-01 DXNew= 5.0454D-01 8.7690D-01
 Trust test= 6.22D-01 RLast= 2.92D-01 DXMaxT set to 5.05D-01
 The second derivative matrix:
                          X1        Y1        Z1        X2        Y2
           X1           0.48288
           Y1           0.07560   0.68703
           Z1          -0.04675  -0.04921   0.01129
           X2          -0.09504   0.13703  -0.00408   0.07142
           Y2           0.09025  -0.52015   0.02756  -0.10205   0.53099
           Z2           0.00112   0.02013  -0.00353   0.00178  -0.02615
           X3          -0.39267  -0.20986   0.04552   0.02875   0.00389
           Y3          -0.16496  -0.16741   0.02245  -0.03570  -0.00950
           Z3           0.04465   0.02973  -0.00815   0.00248  -0.00256
           X4           0.00038   0.00015   0.00336  -0.00407   0.00256
           Y4          -0.00117   0.00077  -0.00048   0.00024  -0.00138
           Z4           0.00045  -0.00042  -0.00085   0.00120  -0.00016
           X5           0.00155  -0.00118  -0.00067   0.00131   0.00097
           Y5           0.00161  -0.00105   0.00074  -0.00042   0.00195
           Z5           0.00159  -0.00100   0.00100  -0.00075   0.00210
           X6           0.00291  -0.00174   0.00262  -0.00237   0.00438
           Y6          -0.00133   0.00081  -0.00105   0.00090  -0.00190
           Z6          -0.00105   0.00077   0.00024  -0.00063  -0.00080
                          Z2        X3        Y3        Z3        X4
           Z2           0.00244
           X3          -0.00043   0.36956
           Y3           0.00568   0.20501   0.17621
           Z3           0.00115  -0.04422  -0.02761   0.00719
           X4          -0.00204  -0.00161  -0.00186  -0.00193   0.54563
           Y4           0.00009   0.00104   0.00064   0.00024   0.12784
           Z4           0.00062   0.00001   0.00029   0.00051   0.09746
           X5           0.00070  -0.00086  -0.00017   0.00044  -0.46483
           Y5          -0.00017  -0.00147  -0.00092  -0.00037  -0.10828
           Z5          -0.00034  -0.00155  -0.00104  -0.00053   0.01896
           X6          -0.00112  -0.00316  -0.00232  -0.00142  -0.07550
           Y6           0.00042   0.00138   0.00098   0.00056  -0.02042
           Z6          -0.00034   0.00067   0.00022  -0.00017  -0.11581
                          Y4        Z4        X5        Y5        Z5
           Y4           0.03029
           Z4           0.02710   0.53886
           X5          -0.10909  -0.02460   0.46159
           Y5          -0.02557  -0.00659   0.10830   0.02544
           Z5           0.00391  -0.05997   0.02431   0.00604   0.04689
           X6          -0.01887  -0.07452   0.00124   0.00025  -0.04255
           Y6          -0.00474  -0.02022   0.00117   0.00014  -0.01001
           Z6          -0.03086  -0.47916  -0.00018   0.00035   0.01295
                          X6        Y6        Z6
           X6           0.07688
           Y6           0.01829   0.00471
           Z6           0.11699   0.03030   0.46649
 ITU=  1  0
     Eigenvalues ---   -0.00158   0.00000   0.00000   0.00000   0.00000
     Eigenvalues ---    0.01245   0.14509   0.15651   0.78398   0.86014
     Eigenvalues ---    1.03038   1.09152
 RFO step:  Lambda=-3.62833433D-03 EMin=-1.58416920D-03
 Quartic linear search produced a step of  0.07795.
 Maximum step size (   0.505) exceeded in Quadratic search.
    -- Step size scaled by   0.502
 TrRot= -0.007339  0.005955 -0.038832  0.219531 -0.014000 -0.221507
 Variable       Old X    -DE/DX   Delta X   Delta X   Delta X     New X
                                 (Linear)    (Quad)   (Total)
    X1       -2.41283  -0.01446  -0.00403  -0.03360  -0.04362  -2.45645
    Y1        0.00770  -0.00603   0.00393   0.03116   0.04618   0.05388
    Z1        0.11883  -0.00033   0.00866  -0.20372  -0.26722  -0.14839
    X2       -2.87130   0.00108  -0.01206  -0.15102  -0.16526  -3.03656
    Y2        1.76581  -0.00109   0.00205   0.01436   0.02872   1.79452
    Z2       -0.14662   0.00001  -0.00617   0.05135  -0.02960  -0.17622
    X3       -3.93288   0.01376  -0.00051   0.10357   0.08881  -3.84407
    Y3       -1.07063   0.00725  -0.00313  -0.06488  -0.05552  -1.12616
    Z3        0.14434  -0.00026  -0.00513   0.23042   0.13061   0.27494
    X4        2.74253  -0.00472   0.00442  -0.01064  -0.01168   2.73085
    Y4       -0.04723  -0.00113  -0.00317  -0.00669  -0.00887  -0.05610
    Z4       -0.18734   0.01096   0.00012   0.02271   0.02121  -0.16613
    X5        0.89894   0.00609   0.00281  -0.04393  -0.04856   0.85038
    Y5       -0.37964   0.00185   0.00444   0.12487   0.13365  -0.24598
    Z5       -0.23818   0.00035   0.00466   0.19932   0.17610  -0.06208
    X6        3.30198  -0.00175   0.00937   0.19974   0.18031   3.48230
    Y6        0.06960  -0.00086  -0.00413  -0.13429  -0.14416  -0.07456
    Z6        1.57650  -0.01073  -0.00213  -0.03773  -0.03110   1.54540
         Item               Value     Threshold  Converged?
 Maximum Force            0.014457     0.000450     NO 
 RMS     Force            0.006637     0.000300     NO 
 Maximum Displacement     0.267218     0.001800     NO 
 RMS     Displacement     0.115142     0.001200     NO 
 Predicted change in Energy=-1.606786D-03
 GradGradGradGradGradGradGradGradGradGradGradGradGradGradGradGradGradGrad

                          Input orientation:                          
 ---------------------------------------------------------------------
 Center     Atomic      Atomic             Coordinates (Angstroms)
 Number     Number       Type             X           Y           Z
 ---------------------------------------------------------------------
      1          8           0       -1.299897    0.028512   -0.078523
      2          1           0       -1.606877    0.949621   -0.093250
      3          1           0       -2.034193   -0.595937    0.145494
      4          8           0        1.445103   -0.029687   -0.087914
      5          1           0        0.450000   -0.130168   -0.032854
      6          1           0        1.842751   -0.039453    0.817792
 ---------------------------------------------------------------------
                    Distance matrix (angstroms):
                    1          2          3          4          5
     1  O    0.000000
     2  H    0.971028   0.000000
     3  H    0.989601   1.621218   0.000000
     4  O    2.745633   3.205254   3.532792   0.000000
     5  H    1.757670   2.323861   2.533765   1.001678   0.000000
     6  H    3.268676   3.702458   3.973960   0.989204   1.634498
                    6
     6  H    0.000000
 Stoichiometry    H4O2
 Framework group  C1[X(H4O2)]
 Deg. of freedom    12
 Full point group                 C1      NOp   1
 Largest Abelian subgroup         C1      NOp   1
 Largest concise Abelian subgroup C1      NOp   1
                         Standard orientation:                         
 ---------------------------------------------------------------------
 Center     Atomic      Atomic             Coordinates (Angstroms)
 Number     Number       Type             X           Y           Z
 ---------------------------------------------------------------------
      1          8           0       -1.291631   -0.010439   -0.020536
      2          1           0       -1.624274    0.864035    0.239343
      3          1           0       -2.001613   -0.698213    0.026402
      4          8           0        1.452520    0.032272   -0.100006
      5          1           0        0.462576   -0.114472   -0.057156
      6          1           0        1.876201   -0.226010    0.755744
 ---------------------------------------------------------------------
 Rotational constants (GHZ):    241.8464282      7.0556884      7.0012961
 Standard basis: SDDAll (6D, 10F)
 There are    30 symmetry adapted cartesian basis functions of A   symmetry.
 There are    30 symmetry adapted basis functions of A   symmetry.
    30 basis functions,    54 primitive gaussians,    30 cartesian basis functions
     8 alpha electrons        8 beta electrons
       nuclear repulsion energy        25.8260143560 Hartrees.
 NAtoms=    6 NActive=    6 NUniq=    6 SFac= 1.00D+00 NAtFMM=   60 NAOKFM=F Big=F
 Integral buffers will be    131072 words long.
 Raffenetti 2 integral format.
 Two-electron integral symmetry is turned on.
 One-electron integrals computed using PRISM.
   1 Symmetry operations used in ECPInt.
 ECPInt:  NShTT=     171 NPrTT=     619 LenC2=     172 LenP2D=     564.
 LDataN:  DoStor=T MaxTD1= 4 Len=   56
 NBasis=    30 RedAO= T EigKep=  3.67D-02  NBF=    30
 NBsUse=    30 1.00D-06 EigRej= -1.00D+00 NBFU=    30
 Initial guess from the checkpoint file:  "/tmp/Gau-27844.chk"
 B after Tr=     0.000000    0.000000    0.000000
         Rot=    0.995397   -0.095747   -0.002513   -0.003414 Ang= -11.00 deg.
 ExpMin= 7.02D-02 ExpMax= 4.71D+01 ExpMxC= 4.71D+01 IAcc=2 IRadAn=         4 AccDes= 0.00D+00
 Harris functional with IExCor= 1009 and IRadAn=       4 diagonalized for initial guess.
 HarFok:  IExCor= 1009 AccDes= 0.00D+00 IRadAn=         4 IDoV= 1 UseB2=F ITyADJ=14
 ICtDFT=  3500011 ScaDFX=  1.000000  1.000000  1.000000  1.000000
 FoFCou: FMM=F IPFlag=           0 FMFlag=      100000 FMFlg1=           0
         NFxFlg=           0 DoJE=T BraDBF=F KetDBF=T FulRan=T
         wScrn=  0.000000 ICntrl=     500 IOpCl=  0 I1Cent=   200000004 NGrid=           0
         NMat0=    1 NMatS0=      1 NMatT0=    0 NMatD0=    1 NMtDS0=    0 NMtDT0=    0
 Petite list used in FoFCou.
 Keep R1 ints in memory in canonical form, NReq=1237769.
 Requested convergence on RMS density matrix=1.00D-08 within 512 cycles.
 Requested convergence on MAX density matrix=1.00D-06.
 Requested convergence on             energy=1.00D-06.
 No special actions if energy rises.
 Integral accuracy reduced to 1.0D-05 until final iterations.
 Initial convergence to 1.0D-05 achieved.  Increase integral accuracy.
 SCF Done:  E(RPBE1PBE) =  -34.4117103718     A.U. after   12 cycles
            NFock= 12  Conv=0.70D-08     -V/T= 2.2713
   1 Symmetry operations used in ECPInt.
 ECPInt:  NShTT=     171 NPrTT=     619 LenC2=     172 LenP2D=     564.
 LDataN:  DoStor=T MaxTD1= 5 Len=  102
 Calling FoFJK, ICntrl=      2127 FMM=F ISym2X=0 I1Cent= 0 IOpClX= 0 NMat=1 NMatS=1 NMatT=0.
 ***** Axes restored to original set *****
 -------------------------------------------------------------------
 Center     Atomic                   Forces (Hartrees/Bohr)
 Number     Number              X              Y              Z
 -------------------------------------------------------------------
      1        8          -0.013132453   -0.009713650    0.008231064
      2        1          -0.000058516   -0.001583674   -0.001474235
      3        1           0.014140321    0.011502544   -0.005462927
      4        8          -0.007118725   -0.001707367    0.019263653
      5        1           0.012278765    0.001506386   -0.004006778
      6        1          -0.006109393   -0.000004239   -0.016550777
 -------------------------------------------------------------------
 Cartesian Forces:  Max     0.019263653 RMS     0.009446859

 GradGradGradGradGradGradGradGradGradGradGradGradGradGradGradGradGradGrad
 Berny optimization.
 Search for a local minimum.
 Step number   3 out of a maximum of  100
 All quantities printed in internal units (Hartrees-Bohrs-Radians)
 Update second derivatives using D2CorN and points    1    3    2
 DE=  8.00D-04 DEPred=-1.61D-03 R=-4.98D-01
 Trust test=-4.98D-01 RLast= 4.89D-01 DXMaxT set to 2.52D-01
 The second derivative matrix:
                          X1        Y1        Z1        X2        Y2
           X1           0.48074
           Y1           0.07653   0.68741
           Z1          -0.04640  -0.05492   0.02277
           X2          -0.09837   0.13598  -0.00167   0.07218
           Y2           0.08996  -0.51912   0.02893  -0.10476   0.53189
           Z2          -0.00033   0.02054  -0.00398   0.00167  -0.02744
           X3          -0.39103  -0.20960   0.04513   0.03239   0.00317
           Y3          -0.16492  -0.16890   0.02640  -0.03201  -0.01081
           Z3           0.04418   0.03277  -0.01457   0.00084  -0.00334
           X4           0.00035   0.00021   0.00275  -0.00678   0.00397
           Y4          -0.00200   0.00121  -0.00051  -0.00022  -0.00198
           Z4           0.00195  -0.00152   0.00520   0.00607  -0.00097
           X5           0.00283  -0.00338   0.00406   0.00510   0.00091
           Y5           0.00351   0.00026  -0.00217  -0.00028   0.00289
           Z5           0.00334   0.00143  -0.00534  -0.00246   0.00341
           X6           0.00549   0.00025  -0.00388  -0.00452   0.00676
           Y6          -0.00308  -0.00086   0.00226   0.00129  -0.00287
           Z6          -0.00274   0.00170  -0.00408  -0.00445  -0.00059
                          Z2        X3        Y3        Z3        X4
           Z2           0.00240
           X3           0.00108   0.36788
           Y3           0.00662   0.20485   0.17844
           Z3           0.00129  -0.04363  -0.02961   0.01072
           X4          -0.00301  -0.00158  -0.00289  -0.00176   0.54643
           Y4          -0.00013   0.00173   0.00092   0.00020   0.12755
           Z4           0.00174  -0.00249   0.00156  -0.00234   0.09771
           X5           0.00163  -0.00223   0.00147  -0.00193  -0.46511
           Y5           0.00030  -0.00348  -0.00323   0.00146  -0.10693
           Z5          -0.00015  -0.00314  -0.00460   0.00310   0.02059
           X6          -0.00103  -0.00543  -0.00650   0.00229  -0.07331
           Y6           0.00011   0.00334   0.00358  -0.00148  -0.02190
           Z6          -0.00131   0.00306  -0.00037   0.00180  -0.11628
                          Y4        Z4        X5        Y5        Z5
           Y4           0.03007
           Z4           0.02751   0.53776
           X5          -0.10861  -0.02385   0.46268
           Y5          -0.02518  -0.01025   0.10554   0.02534
           Z5           0.00422  -0.06452   0.02037   0.00738   0.05054
           X6          -0.01844  -0.07939  -0.00327   0.00164  -0.03869
           Y6          -0.00504  -0.01634   0.00408  -0.00008  -0.01185
           Z6          -0.03130  -0.47783  -0.00027   0.00327   0.01637
                          X6        Y6        Z6
           X6           0.08103
           Y6           0.01628   0.00527
           Z6           0.12069   0.02729   0.46504
 ITU= -1  1  0
 Energy rises -- skip Quadratic search.
 Quartic linear search produced a step of -0.65658.
 TrRot=  0.000000  0.000000  0.000000  0.000000  0.000000  0.000000
 Variable       Old X    -DE/DX   Delta X   Delta X   Delta X     New X
                                 (Linear)    (Quad)   (Total)
    X1       -2.45645  -0.01313   0.02864   0.00000   0.02864  -2.42781
    Y1        0.05388  -0.00971  -0.03032   0.00000  -0.03032   0.02356
    Z1       -0.14839   0.00823   0.17545   0.00000   0.17545   0.02706
    X2       -3.03656  -0.00006   0.10850   0.00000   0.10850  -2.92805
    Y2        1.79452  -0.00158  -0.01886   0.00000  -0.01886   1.77567
    Z2       -0.17622  -0.00147   0.01944   0.00000   0.01944  -0.15678
    X3       -3.84407   0.01414  -0.05831   0.00000  -0.05831  -3.90238
    Y3       -1.12616   0.01150   0.03646   0.00000   0.03646  -1.08970
    Z3        0.27494  -0.00546  -0.08575   0.00000  -0.08575   0.18919
    X4        2.73085  -0.00712   0.00767   0.00000   0.00767   2.73852
    Y4       -0.05610  -0.00171   0.00582   0.00000   0.00582  -0.05028
    Z4       -0.16613   0.01926  -0.01392   0.00000  -0.01392  -0.18006
    X5        0.85038   0.01228   0.03189   0.00000   0.03189   0.88226
    Y5       -0.24598   0.00151  -0.08775   0.00000  -0.08775  -0.33374
    Z5       -0.06208  -0.00401  -0.11562   0.00000  -0.11562  -0.17771
    X6        3.48230  -0.00611  -0.11839   0.00000  -0.11839   3.36391
    Y6       -0.07456   0.00000   0.09465   0.00000   0.09465   0.02010
    Z6        1.54540  -0.01655   0.02042   0.00000   0.02042   1.56582
         Item               Value     Threshold  Converged?
 Maximum Force            0.019264     0.000450     NO 
 RMS     Force            0.009447     0.000300     NO 
 Maximum Displacement     0.175450     0.001800     NO 
 RMS     Displacement     0.075600     0.001200     NO 
 Predicted change in Energy=-3.579609D-04
 GradGradGradGradGradGradGradGradGradGradGradGradGradGradGradGradGradGrad

                          Input orientation:                          
 ---------------------------------------------------------------------
 Center     Atomic      Atomic             Coordinates (Angstroms)
 Number     Number       Type             X           Y           Z
 ---------------------------------------------------------------------
      1          8           0       -1.284743    0.012467    0.014321
      2          1           0       -1.549459    0.939643   -0.082965
      3          1           0       -2.065049   -0.576645    0.100116
      4          8           0        1.449162   -0.026606   -0.095283
      5          1           0        0.466873   -0.176605   -0.094039
      6          1           0        1.780102    0.010635    0.828596
 ---------------------------------------------------------------------
                    Distance matrix (angstroms):
                    1          2          3          4          5
     1  O    0.000000
     2  H    0.969120   0.000000
     3  H    0.981474   1.611981   0.000000
     4  O    2.736381   3.150479   3.562359   0.000000
     5  H    1.765120   2.304718   2.570672   0.993677   0.000000
     6  H    3.171171   3.574909   3.957369   0.982070   1.615824
                    6
     6  H    0.000000
 Stoichiometry    H4O2
 Framework group  C1[X(H4O2)]
 Deg. of freedom    12
 Full point group                 C1      NOp   1
 Largest Abelian subgroup         C1      NOp   1
 Largest concise Abelian subgroup C1      NOp   1
                         Standard orientation:                         
 ---------------------------------------------------------------------
 Center     Atomic      Atomic             Coordinates (Angstroms)
 Number     Number       Type             X           Y           Z
 ---------------------------------------------------------------------
      1          8           0       -1.282020   -0.018994    0.009171
      2          1           0       -1.565213    0.904923    0.082479
      3          1           0       -2.050335   -0.629247   -0.014796
      4          8           0        1.451828    0.016889   -0.102939
      5          1           0        0.472692   -0.150294   -0.130095
      6          1           0        1.784392   -0.108544    0.812554
 ---------------------------------------------------------------------
 Rotational constants (GHZ):    241.8607135      7.1240694      7.0796582
 Standard basis: SDDAll (6D, 10F)
 There are    30 symmetry adapted cartesian basis functions of A   symmetry.
 There are    30 symmetry adapted basis functions of A   symmetry.
    30 basis functions,    54 primitive gaussians,    30 cartesian basis functions
     8 alpha electrons        8 beta electrons
       nuclear repulsion energy        25.9734846965 Hartrees.
 NAtoms=    6 NActive=    6 NUniq=    6 SFac= 1.00D+00 NAtFMM=   60 NAOKFM=F Big=F
 Integral buffers will be    131072 words long.
 Raffenetti 2 integral format.
 Two-electron integral symmetry is turned on.
 One-electron integrals computed using PRISM.
   1 Symmetry operations used in ECPInt.
 ECPInt:  NShTT=     171 NPrTT=     619 LenC2=     172 LenP2D=     564.
 LDataN:  DoStor=T MaxTD1= 4 Len=   56
 NBasis=    30 RedAO= T EigKep=  3.59D-02  NBF=    30
 NBsUse=    30 1.00D-06 EigRej= -1.00D+00 NBFU=    30
 Lowest energy guess from the checkpoint file:  "/tmp/Gau-27844.chk"
 B after Tr=     0.000000    0.000000    0.000000
         Rot=    0.999269   -0.038203   -0.000943   -0.001083 Ang=  -4.38 deg.
 B after Tr=     0.000000    0.000000    0.000000
         Rot=    0.998333    0.057644    0.001555    0.002343 Ang=   6.62 deg.
 Keep R1 ints in memory in canonical form, NReq=1237769.
 Requested convergence on RMS density matrix=1.00D-08 within 512 cycles.
 Requested convergence on MAX density matrix=1.00D-06.
 Requested convergence on             energy=1.00D-06.
 No special actions if energy rises.
 Integral accuracy reduced to 1.0D-05 until final iterations.
 Initial convergence to 1.0D-05 achieved.  Increase integral accuracy.
 SCF Done:  E(RPBE1PBE) =  -34.4127318369     A.U. after   10 cycles
            NFock= 10  Conv=0.59D-08     -V/T= 2.2689
   1 Symmetry operations used in ECPInt.
 ECPInt:  NShTT=     171 NPrTT=     619 LenC2=     172 LenP2D=     564.
 LDataN:  DoStor=T MaxTD1= 5 Len=  102
 Calling FoFJK, ICntrl=      2127 FMM=F ISym2X=0 I1Cent= 0 IOpClX= 0 NMat=1 NMatS=1 NMatT=0.
 ***** Axes restored to original set *****
 -------------------------------------------------------------------
 Center     Atomic                   Forces (Hartrees/Bohr)
 Number     Number              X              Y              Z
 -------------------------------------------------------------------
      1        8          -0.009287095   -0.006234382    0.002413720
      2        1          -0.000111907    0.000267573   -0.000784377
      3        1           0.010075812    0.006119440   -0.001607038
      4        8          -0.005289588   -0.001286241    0.012568873
      5        1           0.006968724    0.001715733   -0.001177288
      6        1          -0.002355946   -0.000582124   -0.011413890
 -------------------------------------------------------------------
 Cartesian Forces:  Max     0.012568873 RMS     0.006008628

 GradGradGradGradGradGradGradGradGradGradGradGradGradGradGradGradGradGrad
 Berny optimization.
 Search for a local minimum.
 Step number   4 out of a maximum of  100
 All quantities printed in internal units (Hartrees-Bohrs-Radians)
 Update second derivatives using D2CorN and points    1    2    4
 The second derivative matrix:
                          X1        Y1        Z1        X2        Y2
           X1           0.48405
           Y1           0.07510   0.68687
           Z1          -0.04083  -0.05540   0.02435
           X2          -0.09307   0.13737  -0.00336   0.06837
           Y2           0.08940  -0.51974   0.03148  -0.10273   0.53130
           Z2           0.00105   0.02118  -0.00481   0.00037  -0.02698
           X3          -0.39431  -0.20846   0.04127   0.02920   0.00297
           Y3          -0.16379  -0.16795   0.02435  -0.03508  -0.00982
           Z3           0.04166   0.03298  -0.01524   0.00189  -0.00463
           X4          -0.00024   0.00021   0.00241  -0.00761   0.00421
           Y4          -0.00140   0.00147  -0.00058  -0.00063  -0.00184
           Z4           0.00168  -0.00183   0.00665   0.00730  -0.00136
           X5           0.00362  -0.00350   0.00413   0.00468   0.00139
           Y5          -0.00028  -0.00028  -0.00193   0.00170   0.00143
           Z5          -0.00182   0.00113  -0.00621  -0.00105   0.00170
           X6          -0.00005  -0.00073  -0.00362  -0.00157   0.00476
           Y6           0.00097  -0.00038   0.00208  -0.00063  -0.00133
           Z6          -0.00175   0.00194  -0.00475  -0.00514  -0.00021
                          Z2        X3        Y3        Z3        X4
           Z2           0.00198
           X3           0.00029   0.37075
           Y3           0.00566   0.20448   0.17690
           Z3           0.00177  -0.04189  -0.02859   0.01102
           X4          -0.00329  -0.00112  -0.00299  -0.00166   0.54669
           Y4          -0.00029   0.00131   0.00056   0.00027   0.12745
           Z4           0.00203  -0.00264   0.00213  -0.00307   0.09782
           X5           0.00146  -0.00273   0.00112  -0.00196  -0.46513
           Y5           0.00105  -0.00103  -0.00138   0.00122  -0.10646
           Z5           0.00052   0.00041  -0.00260   0.00334   0.02123
           X6           0.00011  -0.00179  -0.00374   0.00196  -0.07259
           Y6          -0.00062   0.00072   0.00168  -0.00125  -0.02242
           Z6          -0.00149   0.00255  -0.00095   0.00218  -0.11650
                          Y4        Z4        X5        Y5        Z5
           Y4           0.03000
           Z4           0.02760   0.53751
           X5          -0.10862  -0.02358   0.46265
           Y5          -0.02498  -0.01111   0.10569   0.02449
           Z5           0.00434  -0.06554   0.02038   0.00708   0.05117
           X6          -0.01810  -0.08058  -0.00309   0.00038  -0.03915
           Y6          -0.00522  -0.01542   0.00392   0.00072  -0.01166
           Z6          -0.03134  -0.47758  -0.00043   0.00369   0.01673
                          X6        Y6        Z6
           X6           0.07909
           Y6           0.01744   0.00453
           Z6           0.12127   0.02686   0.46491
 ITU=  0 -1  1  0
     Eigenvalues ---   -0.00203   0.00000   0.00000   0.00000   0.00656
     Eigenvalues ---    0.02400   0.14503   0.15659   0.78667   0.85871
     Eigenvalues ---    1.03215   1.09643
 RFO step:  Lambda=-2.68572730D-03 EMin=-2.02806157D-03
 Quartic linear search produced a step of -0.07188.
 Maximum step size (   0.252) exceeded in Quadratic search.
    -- Step size scaled by   0.398
 TrRot=  0.001332  0.008159  0.011151  0.140344  0.002647 -0.141824
 Variable       Old X    -DE/DX   Delta X   Delta X   Delta X     New X
                                 (Linear)    (Quad)   (Total)
    X1       -2.42781  -0.00929   0.00108   0.05561   0.05831  -2.36950
    Y1        0.02356  -0.00623  -0.00114   0.03121   0.04177   0.06533
    Z1        0.02706   0.00241   0.00660   0.04601   0.06995   0.09701
    X2       -2.92805  -0.00011   0.00408  -0.06875  -0.06140  -2.98946
    Y2        1.77567   0.00027  -0.00071  -0.00192   0.00986   1.78553
    Z2       -0.15678  -0.00078   0.00073  -0.11102  -0.09196  -0.24874
    X3       -3.90238   0.01008  -0.00219   0.11777   0.11573  -3.78665
    Y3       -1.08970   0.00612   0.00137  -0.05604  -0.04084  -1.13054
    Z3        0.18919  -0.00161  -0.00322  -0.00028   0.01799   0.20718
    X4        2.73852  -0.00529   0.00029  -0.04763  -0.04655   2.69197
    Y4       -0.05028  -0.00129   0.00022   0.00521   0.00954  -0.04074
    Z4       -0.18006   0.01257  -0.00052   0.00420   0.00779  -0.17227
    X5        0.88226   0.00697   0.00120  -0.05549  -0.05383   0.82843
    Y5       -0.33374   0.00172  -0.00330   0.07724   0.08081  -0.25293
    Z5       -0.17771  -0.00118  -0.00435  -0.00231   0.00242  -0.17529
    X6        3.36391  -0.00236  -0.00445  -0.01308  -0.01226   3.35165
    Y6        0.02010  -0.00058   0.00356  -0.10847  -0.10113  -0.08104
    Z6        1.56582  -0.01141   0.00077  -0.00937  -0.00619   1.55962
         Item               Value     Threshold  Converged?
 Maximum Force            0.012569     0.000450     NO 
 RMS     Force            0.006009     0.000300     NO 
 Maximum Displacement     0.115726     0.001800     NO 
 RMS     Displacement     0.057694     0.001200     NO 
 Predicted change in Energy=-5.852506D-04
 GradGradGradGradGradGradGradGradGradGradGradGradGradGradGradGradGradGrad

                          Input orientation:                          
 ---------------------------------------------------------------------
 Center     Atomic      Atomic             Coordinates (Angstroms)
 Number     Number       Type             X           Y           Z
 ---------------------------------------------------------------------
      1          8           0       -1.253885    0.034569    0.051337
      2          1           0       -1.581952    0.944863   -0.131629
      3          1           0       -2.003810   -0.598256    0.109637
      4          8           0        1.424531   -0.021560   -0.091160
      5          1           0        0.438386   -0.133845   -0.092759
      6          1           0        1.773615   -0.042882    0.825318
 ---------------------------------------------------------------------
                    Distance matrix (angstroms):
                    1          2          3          4          5
     1  O    0.000000
     2  H    0.984754   0.000000
     3  H    0.982982   1.617835   0.000000
     4  O    2.682791   3.158251   3.482301   0.000000
     5  H    1.706724   2.290609   2.494186   0.992518   0.000000
     6  H    3.125828   3.626461   3.884531   0.980942   1.622953
                    6
     6  H    0.000000
 Stoichiometry    H4O2
 Framework group  C1[X(H4O2)]
 Deg. of freedom    12
 Full point group                 C1      NOp   1
 Largest Abelian subgroup         C1      NOp   1
 Largest concise Abelian subgroup C1      NOp   1
                         Standard orientation:                         
 ---------------------------------------------------------------------
 Center     Atomic      Atomic             Coordinates (Angstroms)
 Number     Number       Type             X           Y           Z
 ---------------------------------------------------------------------
      1          8           0       -1.253664   -0.021925    0.020943
      2          1           0       -1.605809    0.887407    0.158239
      3          1           0       -1.986231   -0.654219   -0.151696
      4          8           0        1.425782    0.039820   -0.097888
      5          1           0        0.443085   -0.089073   -0.150646
      6          1           0        1.772008   -0.287270    0.759660
 ---------------------------------------------------------------------
 Rotational constants (GHZ):    238.4048357      7.3941561      7.3334793
 Standard basis: SDDAll (6D, 10F)
 There are    30 symmetry adapted cartesian basis functions of A   symmetry.
 There are    30 symmetry adapted basis functions of A   symmetry.
    30 basis functions,    54 primitive gaussians,    30 cartesian basis functions
     8 alpha electrons        8 beta electrons
       nuclear repulsion energy        26.1626098952 Hartrees.
 NAtoms=    6 NActive=    6 NUniq=    6 SFac= 1.00D+00 NAtFMM=   60 NAOKFM=F Big=F
 Integral buffers will be    131072 words long.
 Raffenetti 2 integral format.
 Two-electron integral symmetry is turned on.
 One-electron integrals computed using PRISM.
   1 Symmetry operations used in ECPInt.
 ECPInt:  NShTT=     171 NPrTT=     619 LenC2=     172 LenP2D=     564.
 LDataN:  DoStor=T MaxTD1= 4 Len=   56
 NBasis=    30 RedAO= T EigKep=  3.38D-02  NBF=    30
 NBsUse=    30 1.00D-06 EigRej= -1.00D+00 NBFU=    30
 Initial guess from the checkpoint file:  "/tmp/Gau-27844.chk"
 B after Tr=     0.000000    0.000000    0.000000
         Rot=    0.996549   -0.082980   -0.000218   -0.002021 Ang=  -9.52 deg.
 ExpMin= 7.02D-02 ExpMax= 4.71D+01 ExpMxC= 4.71D+01 IAcc=2 IRadAn=         4 AccDes= 0.00D+00
 Harris functional with IExCor= 1009 and IRadAn=       4 diagonalized for initial guess.
 HarFok:  IExCor= 1009 AccDes= 0.00D+00 IRadAn=         4 IDoV= 1 UseB2=F ITyADJ=14
 ICtDFT=  3500011 ScaDFX=  1.000000  1.000000  1.000000  1.000000
 FoFCou: FMM=F IPFlag=           0 FMFlag=      100000 FMFlg1=           0
         NFxFlg=           0 DoJE=T BraDBF=F KetDBF=T FulRan=T
         wScrn=  0.000000 ICntrl=     500 IOpCl=  0 I1Cent=   200000004 NGrid=           0
         NMat0=    1 NMatS0=      1 NMatT0=    0 NMatD0=    1 NMtDS0=    0 NMtDT0=    0
 Petite list used in FoFCou.
 Keep R1 ints in memory in canonical form, NReq=1237769.
 Requested convergence on RMS density matrix=1.00D-08 within 512 cycles.
 Requested convergence on MAX density matrix=1.00D-06.
 Requested convergence on             energy=1.00D-06.
 No special actions if energy rises.
 Integral accuracy reduced to 1.0D-05 until final iterations.
 Initial convergence to 1.0D-05 achieved.  Increase integral accuracy.
 SCF Done:  E(RPBE1PBE) =  -34.4127749997     A.U. after   11 cycles
            NFock= 11  Conv=0.47D-08     -V/T= 2.2697
   1 Symmetry operations used in ECPInt.
 ECPInt:  NShTT=     171 NPrTT=     619 LenC2=     172 LenP2D=     564.
 LDataN:  DoStor=T MaxTD1= 5 Len=  102
 Calling FoFJK, ICntrl=      2127 FMM=F ISym2X=0 I1Cent= 0 IOpClX= 0 NMat=1 NMatS=1 NMatT=0.
 ***** Axes restored to original set *****
 -------------------------------------------------------------------
 Center     Atomic                   Forces (Hartrees/Bohr)
 Number     Number              X              Y              Z
 -------------------------------------------------------------------
      1        8          -0.017582013    0.005897520   -0.001769069
      2        1           0.005461684   -0.012410645    0.002344019
      3        1           0.010537109    0.006644363   -0.000928410
      4        8          -0.001352737   -0.001548335    0.010266405
      5        1           0.006446395    0.001247948    0.000945102
      6        1          -0.003510437    0.000169149   -0.010858046
 -------------------------------------------------------------------
 Cartesian Forces:  Max     0.017582013 RMS     0.007364736

 GradGradGradGradGradGradGradGradGradGradGradGradGradGradGradGradGradGrad
 Berny optimization.
 Search for a local minimum.
 Step number   5 out of a maximum of  100
 All quantities printed in internal units (Hartrees-Bohrs-Radians)
 Update second derivatives using D2CorN and points    1    3    2    4    5

 DE= -4.32D-05 DEPred=-5.85D-04 R= 7.38D-02
 Trust test= 7.38D-02 RLast= 2.45D-01 DXMaxT set to 1.26D-01
 The second derivative matrix:
                          X1        Y1        Z1        X2        Y2
           X1           0.49395
           Y1           0.07373   0.67556
           Z1          -0.03184  -0.07087   0.03406
           X2          -0.10871   0.14221  -0.01132   0.07846
           Y2           0.09922  -0.51384   0.04657  -0.11537   0.53514
           Z2          -0.01327   0.03298  -0.01176   0.00919  -0.04280
           X3          -0.38047  -0.22473   0.04673   0.02863   0.01846
           Y3          -0.17002  -0.16431   0.02508  -0.02828  -0.01720
           Z3           0.04365   0.03442  -0.01718   0.00140  -0.00428
           X4          -0.00594   0.00441  -0.00215  -0.00454  -0.00143
           Y4          -0.00078   0.00119   0.00061  -0.00149  -0.00122
           Z4           0.00218  -0.00410   0.00749   0.01051  -0.00091
           X5          -0.00310   0.00072   0.00259   0.01059  -0.00599
           Y5           0.01160  -0.00989  -0.00007  -0.00302   0.01392
           Z5           0.00082   0.00240  -0.00966  -0.00031   0.00219
           X6           0.00427   0.00365  -0.00401  -0.00444   0.00511
           Y6          -0.01375   0.01128  -0.00132   0.00594  -0.01679
           Z6          -0.00154   0.00517  -0.00294  -0.00948  -0.00077
                          Z2        X3        Y3        Z3        X4
           Z2           0.00864
           X3           0.00066   0.36100
           Y3           0.00924   0.20418   0.18005
           Z3           0.00205  -0.04424  -0.03035   0.01203
           X4           0.00003  -0.00229  -0.00174  -0.00117   0.54848
           Y4          -0.00139   0.00264   0.00035   0.00022   0.12689
           Z4           0.00452  -0.00680   0.00337  -0.00450   0.09872
           X5           0.00544  -0.00372   0.00381  -0.00301  -0.46338
           Y5          -0.00092  -0.00709  -0.00439   0.00135  -0.10746
           Z5           0.00259  -0.00561  -0.00459   0.00425   0.02278
           X6          -0.00206  -0.00316  -0.00796   0.00337  -0.07234
           Y6           0.00288   0.00654   0.00550  -0.00136  -0.02068
           Z6          -0.00604   0.00926  -0.00276   0.00336  -0.11822
                          Y4        Z4        X5        Y5        Z5
           Y4           0.03009
           Z4           0.02768   0.53671
           X5          -0.10904  -0.02231   0.46534
           Y5          -0.02424  -0.01459   0.10312   0.02331
           Z5           0.00420  -0.06770   0.01974   0.00557   0.05194
           X6          -0.01822  -0.08230  -0.00574   0.00286  -0.03742
           Y6          -0.00618  -0.01145   0.00740   0.00130  -0.00977
           Z6          -0.03133  -0.47652  -0.00245   0.00867   0.01858
                          X6        Y6        Z6
           X6           0.08141
           Y6           0.01455   0.00490
           Z6           0.12242   0.02102   0.46355
 ITU= -1  0 -1  1  0
     Eigenvalues ---   -0.00124  -0.00007   0.00000   0.00811   0.01221
     Eigenvalues ---    0.03184   0.14510   0.15712   0.78624   0.86110
     Eigenvalues ---    1.03375   1.09114
 RFO step:  Lambda=-1.99362849D-03 EMin=-1.23629187D-03
 Quartic linear search produced a step of -0.43322.
 Maximum step size (   0.126) exceeded in Quadratic search.
    -- Step size scaled by   0.168
 TrRot=  0.002981 -0.010068  0.000919  1.697951  0.004316 -1.700531
 Variable       Old X    -DE/DX   Delta X   Delta X   Delta X     New X
                                 (Linear)    (Quad)   (Total)
    X1       -2.36950  -0.01758  -0.02526  -0.01269  -0.03489  -2.40439
    Y1        0.06533   0.00590  -0.01809  -0.00447  -0.02615   0.03917
    Z1        0.09701  -0.00177  -0.03030  -0.00225  -0.03316   0.06385
    X2       -2.98946   0.00546   0.02660  -0.01777   0.01651  -2.97295
    Y2        1.78553  -0.01241  -0.00427  -0.01105  -0.01863   1.76690
    Z2       -0.24874   0.00234   0.03984  -0.00233   0.02919  -0.21955
    X3       -3.78665   0.01054  -0.05013   0.00060  -0.04956  -3.83621
    Y3       -1.13054   0.00664   0.01769  -0.00908   0.00939  -1.12115
    Z3        0.20718  -0.00093  -0.00780   0.01883   0.01461   0.22180
    X4        2.69197  -0.00135   0.02016   0.02526   0.04830   2.74027
    Y4       -0.04074  -0.00155  -0.00413  -0.02940  -0.05139  -0.09213
    Z4       -0.17227   0.01027  -0.00338   0.00400   0.00339  -0.16888
    X5        0.82843   0.00645   0.02332  -0.00221   0.02374   0.85217
    Y5       -0.25293   0.00125  -0.03501   0.11117   0.06304  -0.18989
    Z5       -0.17529   0.00095  -0.00105  -0.02697  -0.02587  -0.20116
    X6        3.35165  -0.00351   0.00531  -0.01141  -0.00410   3.34754
    Y6       -0.08104   0.00017   0.04381  -0.00809   0.02375  -0.05729
    Z6        1.55962  -0.01086   0.00268   0.00619   0.01184   1.57146
         Item               Value     Threshold  Converged?
 Maximum Force            0.017582     0.000450     NO 
 RMS     Force            0.007365     0.000300     NO 
 Maximum Displacement     0.063036     0.001800     NO 
 RMS     Displacement     0.031748     0.001200     NO 
 Predicted change in Energy=-4.499786D-04
 GradGradGradGradGradGradGradGradGradGradGradGradGradGradGradGradGradGrad

                          Input orientation:                          
 ---------------------------------------------------------------------
 Center     Atomic      Atomic             Coordinates (Angstroms)
 Number     Number       Type             X           Y           Z
 ---------------------------------------------------------------------
      1          8           0       -1.272347    0.020731    0.033790
      2          1           0       -1.573216    0.935004   -0.116182
      3          1           0       -2.030035   -0.593288    0.117369
      4          8           0        1.450090   -0.048754   -0.089368
      5          1           0        0.450951   -0.100487   -0.106448
      6          1           0        1.771444   -0.030316    0.831583
 ---------------------------------------------------------------------
                    Distance matrix (angstroms):
                    1          2          3          4          5
     1  O    0.000000
     2  H    0.974120   0.000000
     3  H    0.978824   1.612113   0.000000
     4  O    2.726107   3.179447   3.528531   0.000000
     5  H    1.733239   2.273673   2.539338   1.000624   0.000000
     6  H    3.147021   3.607888   3.908744   0.975581   1.621273
                    6
     6  H    0.000000
 Stoichiometry    H4O2
 Framework group  C1[X(H4O2)]
 Deg. of freedom    12
 Full point group                 C1      NOp   1
 Largest Abelian subgroup         C1      NOp   1
 Largest concise Abelian subgroup C1      NOp   1
                         Standard orientation:                         
 ---------------------------------------------------------------------
 Center     Atomic      Atomic             Coordinates (Angstroms)
 Number     Number       Type             X           Y           Z
 ---------------------------------------------------------------------
      1          8           0       -1.274479   -0.021580    0.013531
      2          1           0       -1.602310    0.885972    0.146902
      3          1           0       -2.013634   -0.652909   -0.101221
      4          8           0        1.448844    0.026629   -0.099824
      5          1           0        0.451682   -0.045568   -0.141095
      6          1           0        1.769341   -0.227890    0.785761
 ---------------------------------------------------------------------
 Rotational constants (GHZ):    241.7422405      7.1822447      7.1325855
 Standard basis: SDDAll (6D, 10F)
 There are    30 symmetry adapted cartesian basis functions of A   symmetry.
 There are    30 symmetry adapted basis functions of A   symmetry.
    30 basis functions,    54 primitive gaussians,    30 cartesian basis functions
     8 alpha electrons        8 beta electrons
       nuclear repulsion energy        26.0359751598 Hartrees.
 NAtoms=    6 NActive=    6 NUniq=    6 SFac= 1.00D+00 NAtFMM=   60 NAOKFM=F Big=F
 Integral buffers will be    131072 words long.
 Raffenetti 2 integral format.
 Two-electron integral symmetry is turned on.
 One-electron integrals computed using PRISM.
   1 Symmetry operations used in ECPInt.
 ECPInt:  NShTT=     171 NPrTT=     619 LenC2=     172 LenP2D=     564.
 LDataN:  DoStor=T MaxTD1= 4 Len=   56
 NBasis=    30 RedAO= T EigKep=  3.42D-02  NBF=    30
 NBsUse=    30 1.00D-06 EigRej= -1.00D+00 NBFU=    30
 Initial guess from the checkpoint file:  "/tmp/Gau-27844.chk"
 B after Tr=     0.000000    0.000000    0.000000
         Rot=    0.999702    0.024399    0.000512    0.000762 Ang=   2.80 deg.
 ExpMin= 7.02D-02 ExpMax= 4.71D+01 ExpMxC= 4.71D+01 IAcc=2 IRadAn=         4 AccDes= 0.00D+00
 Harris functional with IExCor= 1009 and IRadAn=       4 diagonalized for initial guess.
 HarFok:  IExCor= 1009 AccDes= 0.00D+00 IRadAn=         4 IDoV= 1 UseB2=F ITyADJ=14
 ICtDFT=  3500011 ScaDFX=  1.000000  1.000000  1.000000  1.000000
 FoFCou: FMM=F IPFlag=           0 FMFlag=      100000 FMFlg1=           0
         NFxFlg=           0 DoJE=T BraDBF=F KetDBF=T FulRan=T
         wScrn=  0.000000 ICntrl=     500 IOpCl=  0 I1Cent=   200000004 NGrid=           0
         NMat0=    1 NMatS0=      1 NMatT0=    0 NMatD0=    1 NMtDS0=    0 NMtDT0=    0
 Petite list used in FoFCou.
 Keep R1 ints in memory in canonical form, NReq=1237769.
 Requested convergence on RMS density matrix=1.00D-08 within 512 cycles.
 Requested convergence on MAX density matrix=1.00D-06.
 Requested convergence on             energy=1.00D-06.
 No special actions if energy rises.
 Integral accuracy reduced to 1.0D-05 until final iterations.
 Initial convergence to 1.0D-05 achieved.  Increase integral accuracy.
 SCF Done:  E(RPBE1PBE) =  -34.4128241556     A.U. after   11 cycles
            NFock= 11  Conv=0.57D-08     -V/T= 2.2688
   1 Symmetry operations used in ECPInt.
 ECPInt:  NShTT=     171 NPrTT=     619 LenC2=     172 LenP2D=     564.
 LDataN:  DoStor=T MaxTD1= 5 Len=  102
 Calling FoFJK, ICntrl=      2127 FMM=F ISym2X=0 I1Cent= 0 IOpClX= 0 NMat=1 NMatS=1 NMatT=0.
 ***** Axes restored to original set *****
 -------------------------------------------------------------------
 Center     Atomic                   Forces (Hartrees/Bohr)
 Number     Number              X              Y              Z
 -------------------------------------------------------------------
      1        8          -0.009263378    0.001463962    0.000443840
      2        1           0.000861290   -0.004170710    0.000318778
      3        1           0.008373456    0.004333606   -0.001208840
      4        8          -0.011773483    0.000306971    0.005661069
      5        1           0.012916480   -0.001538592    0.000787297
      6        1          -0.001114364   -0.000395237   -0.006002143
 -------------------------------------------------------------------
 Cartesian Forces:  Max     0.012916480 RMS     0.005650703

 GradGradGradGradGradGradGradGradGradGradGradGradGradGradGradGradGradGrad
 Berny optimization.
 Search for a local minimum.
 Step number   6 out of a maximum of  100
 All quantities printed in internal units (Hartrees-Bohrs-Radians)
 Update second derivatives using D2CorN and points    1    3    2    4    5
                                                          6
 DE= -4.92D-05 DEPred=-4.50D-04 R= 1.09D-01
 Trust test= 1.09D-01 RLast= 1.35D-01 DXMaxT set to 1.26D-01
 The second derivative matrix:
                          X1        Y1        Z1        X2        Y2
           X1           0.50111
           Y1           0.07421   0.67646
           Z1          -0.03244  -0.07577   0.03515
           X2          -0.11038   0.14007  -0.01218   0.07642
           Y2           0.10507  -0.51144   0.04995  -0.11530   0.53685
           Z2          -0.01445   0.03455  -0.01240   0.00910  -0.04473
           X3          -0.37692  -0.22665   0.05012   0.02671   0.02121
           Y3          -0.17087  -0.16483   0.02744  -0.02857  -0.01858
           Z3           0.04278   0.03439  -0.01829   0.00273  -0.00517
           X4          -0.01881  -0.00036  -0.00198  -0.00463  -0.01159
           Y4           0.00832   0.00444   0.00237  -0.00592   0.00364
           Z4          -0.00118  -0.00619   0.00995   0.00964  -0.00393
           X5          -0.00152   0.00412   0.00086   0.01523  -0.00331
           Y5          -0.00232  -0.01684  -0.00255   0.00423   0.00730
           Z5           0.00551   0.00725  -0.00937  -0.00195   0.00265
           X6           0.00652   0.00861  -0.00438  -0.00336   0.00392
           Y6          -0.01441   0.01219  -0.00144   0.00550  -0.01778
           Z6          -0.00022   0.00576  -0.00505  -0.00732   0.00124
                          Z2        X3        Y3        Z3        X4
           Z2           0.00907
           X3          -0.00087   0.35878
           Y3           0.00864   0.20270   0.17964
           Z3           0.00270  -0.04475  -0.03012   0.01244
           X4          -0.00133  -0.00445  -0.00126   0.00507   0.57702
           Y4          -0.00344   0.00129  -0.00360  -0.00034   0.10423
           Z4           0.00324  -0.00900   0.00276  -0.00277   0.10767
           X5           0.00926  -0.00112   0.00717  -0.00861  -0.47102
           Y5           0.00203  -0.00499   0.00202   0.00228  -0.06595
           Z5           0.00196  -0.00763  -0.00768   0.00420   0.01107
           X6          -0.00170  -0.00300  -0.00918   0.00278  -0.07811
           Y6           0.00295   0.00642   0.00534  -0.00105  -0.02506
           Z6          -0.00457   0.01214  -0.00103   0.00173  -0.12049
                          Y4        Z4        X5        Y5        Z5
           Y4           0.03526
           Z4           0.01830   0.53858
           X5          -0.09359  -0.02263   0.46236
           Y5          -0.03276   0.00200   0.07287   0.03780
           Z5           0.00666  -0.07335   0.02819   0.00123   0.05363
           X6          -0.01433  -0.08449  -0.00392  -0.00384  -0.03518
           Y6          -0.00699  -0.01294   0.01274   0.00247  -0.01011
           Z6          -0.02356  -0.47566  -0.00707  -0.00500   0.02292
                          X6        Y6        Z6
           X6           0.08188
           Y6           0.01482   0.00477
           Z6           0.12297   0.02259   0.46062
 ITU=  0 -1  0 -1  1  0
     Eigenvalues ---   -0.00364  -0.00005   0.00745   0.01220   0.02913
     Eigenvalues ---    0.04723   0.14488   0.15745   0.78406   0.86160
     Eigenvalues ---    1.04081   1.09421
 RFO step:  Lambda=-3.77175307D-03 EMin=-3.63701677D-03
 I=     1 Eig=   -3.64D-03 Dot1= -1.95D-04
 I=     1 Stepn= -3.15D-01 RXN=   3.15D-01 EDone=F
 Mixed    1 eigenvectors in step.  Raw Step.Grad=  1.95D-04.
 RFO eigenvector is Hessian eigenvector with negative curvature.
 Taking step of  3.15D-01 in eigenvector direction(s).  Step.Grad=  1.80D-03.
 Quartic linear search produced a step of -0.45556.
 Maximum step size (   0.126) exceeded in Quadratic search.
    -- Step size scaled by   0.400
 TrRot=  0.002750  0.006431  0.000271  0.921182 -0.002022 -0.920864
 Variable       Old X    -DE/DX   Delta X   Delta X   Delta X     New X
                                 (Linear)    (Quad)   (Total)
    X1       -2.40439  -0.00926   0.01589  -0.02111  -0.00257  -2.40696
    Y1        0.03917   0.00146   0.01191   0.01473   0.03220   0.07137
    Z1        0.06385   0.00044   0.01511  -0.00645   0.00608   0.06994
    X2       -2.97295   0.00086  -0.00752  -0.06041  -0.06544  -3.03839
    Y2        1.76690  -0.00417   0.00849   0.00375   0.01811   1.78501
    Z2       -0.21955   0.00032  -0.01330  -0.01712  -0.03101  -0.25056
    X3       -3.83621   0.00837   0.02258   0.00637   0.03174  -3.80447
    Y3       -1.12115   0.00433  -0.00428  -0.01526  -0.01474  -1.13589
    Z3        0.22180  -0.00121  -0.00666   0.04922   0.03634   0.25814
    X4        2.74027  -0.01177  -0.02200   0.03136   0.01232   2.75259
    Y4       -0.09213   0.00031   0.02341   0.00998   0.04096  -0.05117
    Z4       -0.16888   0.00566  -0.00154   0.00598   0.00798  -0.16090
    X5        0.85217   0.01292  -0.01082   0.04237   0.03467   0.88684
    Y5       -0.18989  -0.00154  -0.02872  -0.00251  -0.02413  -0.21402
    Z5       -0.20116   0.00079   0.01178  -0.05296  -0.04018  -0.24134
    X6        3.34754  -0.00111   0.00187  -0.01343  -0.01072   3.33682
    Y6       -0.05729  -0.00040  -0.01082  -0.04651  -0.05239  -0.10968
    Z6        1.57146  -0.00600  -0.00539   0.02201   0.02078   1.59225
         Item               Value     Threshold  Converged?
 Maximum Force            0.012916     0.000450     NO 
 RMS     Force            0.005651     0.000300     NO 
 Maximum Displacement     0.065438     0.001800     NO 
 RMS     Displacement     0.031429     0.001200     NO 
 Predicted change in Energy=-2.818495D-04
 GradGradGradGradGradGradGradGradGradGradGradGradGradGradGradGradGradGrad

                          Input orientation:                          
 ---------------------------------------------------------------------
 Center     Atomic      Atomic             Coordinates (Angstroms)
 Number     Number       Type             X           Y           Z
 ---------------------------------------------------------------------
      1          8           0       -1.273708    0.037767    0.037009
      2          1           0       -1.607845    0.944585   -0.132590
      3          1           0       -2.013239   -0.601088    0.136600
      4          8           0        1.456610   -0.027080   -0.085145
      5          1           0        0.469298   -0.113254   -0.127711
      6          1           0        1.765770   -0.058042    0.842582
 ---------------------------------------------------------------------
                    Distance matrix (angstroms):
                    1          2          3          4          5
     1  O    0.000000
     2  H    0.981188   0.000000
     3  H    0.982324   1.620467   0.000000
     4  O    2.733818   3.215162   3.523990   0.000000
     5  H    1.757273   2.331001   2.543783   0.991979   0.000000
     6  H    3.145878   3.652054   3.882553   0.978374   1.620295
                    6
     6  H    0.000000
 Stoichiometry    H4O2
 Framework group  C1[X(H4O2)]
 Deg. of freedom    12
 Full point group                 C1      NOp   1
 Largest Abelian subgroup         C1      NOp   1
 Largest concise Abelian subgroup C1      NOp   1
                         Standard orientation:                         
 ---------------------------------------------------------------------
 Center     Atomic      Atomic             Coordinates (Angstroms)
 Number     Number       Type             X           Y           Z
 ---------------------------------------------------------------------
      1          8           0       -1.277736   -0.020458    0.013501
      2          1           0       -1.639046    0.871410    0.205220
      3          1           0       -1.997683   -0.668141   -0.151255
      4          8           0        1.453289    0.043079   -0.092434
      5          1           0        0.469019   -0.047199   -0.176602
      6          1           0        1.763289   -0.337036    0.754105
 ---------------------------------------------------------------------
 Rotational constants (GHZ):    236.2689218      7.1450250      7.0866284
 Standard basis: SDDAll (6D, 10F)
[...]
           Z6          -0.01876  -0.44522  -0.00188  -0.01950   0.03607
                          X6        Y6        Z6
           X6           0.12895
           Y6           0.01073   0.00773
           Z6           0.17154   0.02967   0.43303
 ITU= -1  0  0  0  0 -1  0  0  0  0 -1  0  0 -1  1  0 -1  1  1
 Energy rises -- skip Quadratic search.
 Quartic linear search produced a step of -0.77605.
 TrRot=  0.000000  0.000000  0.000000  0.000000  0.000000  0.000000
 Variable       Old X    -DE/DX   Delta X   Delta X   Delta X     New X
                                 (Linear)    (Quad)   (Total)
    X1       -2.44577  -0.00018   0.00171   0.00000   0.00171  -2.44406
    Y1        0.25246   0.00001  -0.00417   0.00000  -0.00417   0.24829
    Z1        0.21345  -0.00008  -0.00251   0.00000  -0.00251   0.21094
    X2       -3.27503   0.00013   0.00753   0.00000   0.00753  -3.26750
    Y2        1.78386  -0.00007   0.00025   0.00000   0.00025   1.78410
    Z2       -0.34980   0.00005   0.00211   0.00000   0.00211  -0.34768
    X3       -3.53447   0.00009  -0.00639   0.00000  -0.00639  -3.54086
    Y3       -1.21127   0.00004   0.00151   0.00000   0.00151  -1.20976
    Z3        0.06473   0.00003   0.00366   0.00000   0.00366   0.06839
    X4        2.64416   0.00007   0.00173   0.00000   0.00173   2.64589
    Y4       -0.27577   0.00000   0.00401   0.00000   0.00401  -0.27176
    Z4       -0.15172   0.00008  -0.00069   0.00000  -0.00069  -0.15240
    X5        0.80537  -0.00002   0.00017   0.00000   0.00017   0.80554
    Y5       -0.06913   0.00001  -0.00466   0.00000  -0.00466  -0.07379
    Z5        0.04965   0.00000  -0.00544   0.00000  -0.00544   0.04421
    X6        3.53219  -0.00009  -0.00475   0.00000  -0.00475   3.52744
    Y6       -0.13455   0.00000   0.00307   0.00000   0.00307  -0.13147
    Z6        1.44121  -0.00009   0.00287   0.00000   0.00287   1.44408
         Item               Value     Threshold  Converged?
 Maximum Force            0.000180     0.000450     YES
 RMS     Force            0.000074     0.000300     YES
 Maximum Displacement     0.007532     0.001800     NO 
 RMS     Displacement     0.003767     0.001200     NO 
 Predicted change in Energy=-5.144685D-08
 GradGradGradGradGradGradGradGradGradGradGradGradGradGradGradGradGradGrad

                          Input orientation:                          
 ---------------------------------------------------------------------
 Center     Atomic      Atomic             Coordinates (Angstroms)
 Number     Number       Type             X           Y           Z
 ---------------------------------------------------------------------
      1          8           0       -1.293343    0.131388    0.111624
      2          1           0       -1.729088    0.944108   -0.183986
      3          1           0       -1.873743   -0.640177    0.036190
      4          8           0        1.400143   -0.143811   -0.080649
      5          1           0        0.426275   -0.039047    0.023393
      6          1           0        1.866642   -0.069572    0.764173
 ---------------------------------------------------------------------
                    Distance matrix (angstroms):
                    1          2          3          4          5
     1  O    0.000000
     2  H    0.968386   0.000000
     3  H    0.968436   1.606039   0.000000
     4  O    2.714327   3.314563   3.313361   0.000000
     5  H    1.730294   2.378063   2.377310   0.984997   0.000000
     6  H    3.232911   3.854326   3.853055   0.967913   1.619983
                    6
     6  H    0.000000
 Stoichiometry    H4O2
 Framework group  C1[X(H4O2)]
 Deg. of freedom    12
 Full point group                 C1      NOp   1
 Largest Abelian subgroup         C1      NOp   1
 Largest concise Abelian subgroup C1      NOp   1
                         Standard orientation:                         
 ---------------------------------------------------------------------
 Center     Atomic      Atomic             Coordinates (Angstroms)
 Number     Number       Type             X           Y           Z
 ---------------------------------------------------------------------
      1          8           0       -1.277382    0.000053    0.056416
      2          1           0       -1.784227    0.802574   -0.135520
      3          1           0       -1.782759   -0.803464   -0.135477
      4          8           0        1.431630    0.000013   -0.113355
      5          1           0        0.451351    0.000486   -0.017063
      6          1           0        1.881656   -0.000121    0.743577
 ---------------------------------------------------------------------
 Rotational constants (GHZ):    241.2009813      7.2330859      7.1812560
 Standard basis: SDDAll (6D, 10F)
 There are    30 symmetry adapted cartesian basis functions of A   symmetry.
 There are    30 symmetry adapted basis functions of A   symmetry.
    30 basis functions,    54 primitive gaussians,    30 cartesian basis functions
     8 alpha electrons        8 beta electrons
       nuclear repulsion energy        26.1886287228 Hartrees.
 NAtoms=    6 NActive=    6 NUniq=    6 SFac= 1.00D+00 NAtFMM=   60 NAOKFM=F Big=F
 Integral buffers will be    131072 words long.
 Raffenetti 2 integral format.
 Two-electron integral symmetry is turned on.
 One-electron integrals computed using PRISM.
   1 Symmetry operations used in ECPInt.
 ECPInt:  NShTT=     171 NPrTT=     619 LenC2=     172 LenP2D=     566.
 LDataN:  DoStor=T MaxTD1= 4 Len=   56
 NBasis=    30 RedAO= T EigKep=  3.45D-02  NBF=    30
 NBsUse=    30 1.00D-06 EigRej= -1.00D+00 NBFU=    30
 Lowest energy guess from the checkpoint file:  "/tmp/Gau-27844.chk"
 B after Tr=     0.000000    0.000000    0.000000
         Rot=    1.000000    0.000773   -0.000014   -0.000054 Ang=   0.09 deg.
 B after Tr=     0.000000    0.000000    0.000000
         Rot=    0.999996   -0.002702    0.000050    0.000188 Ang=  -0.31 deg.
 Keep R1 ints in memory in canonical form, NReq=1237769.
 Requested convergence on RMS density matrix=1.00D-08 within 512 cycles.
 Requested convergence on MAX density matrix=1.00D-06.
 Requested convergence on             energy=1.00D-06.
 No special actions if energy rises.
 SCF Done:  E(RPBE1PBE) =  -34.4139095749     A.U. after    4 cycles
            NFock=  4  Conv=0.28D-08     -V/T= 2.2648
   1 Symmetry operations used in ECPInt.
 ECPInt:  NShTT=     171 NPrTT=     619 LenC2=     172 LenP2D=     566.
 LDataN:  DoStor=T MaxTD1= 5 Len=  102
 Calling FoFJK, ICntrl=      2127 FMM=F ISym2X=0 I1Cent= 0 IOpClX= 0 NMat=1 NMatS=1 NMatT=0.
 ***** Axes restored to original set *****
 -------------------------------------------------------------------
 Center     Atomic                   Forces (Hartrees/Bohr)
 Number     Number              X              Y              Z
 -------------------------------------------------------------------
      1        8          -0.000041697   -0.000041462   -0.000003682
      2        1           0.000014239    0.000039523   -0.000007184
      3        1           0.000032038   -0.000000415    0.000007040
      4        8          -0.000000698    0.000006760    0.000047211
      5        1           0.000012281   -0.000001965   -0.000003824
      6        1          -0.000016165   -0.000002441   -0.000039562
 -------------------------------------------------------------------
 Cartesian Forces:  Max     0.000047211 RMS     0.000024313

 GradGradGradGradGradGradGradGradGradGradGradGradGradGradGradGradGradGrad
 Berny optimization.
 Search for a local minimum.
 Step number  49 out of a maximum of  100
 All quantities printed in internal units (Hartrees-Bohrs-Radians)
 Update second derivatives using D2CorN and points   32   31   33   35   34
                                                         36   38   37   39   40

                                                         41   43   42   44   45

                                                         46   48   49
 The second derivative matrix:
                          X1        Y1        Z1        X2        Y2
           X1           0.44297
           Y1           0.12275   0.69587
           Z1           0.08514  -0.08873   0.05653
           X2          -0.15013   0.12702  -0.06217   0.11271
           Y2           0.10964  -0.43958   0.10274  -0.14076   0.52027
           Z2          -0.05277   0.07789  -0.04108   0.04331  -0.10572
           X3          -0.28867  -0.26866  -0.02049   0.03995   0.05199
           Y3          -0.19768  -0.24652  -0.00907  -0.00690  -0.06410
           Z3          -0.02996   0.00324  -0.01266   0.01789   0.00189
           X4          -0.01844   0.02571   0.00171  -0.02453  -0.02977
           Y4          -0.02390  -0.02521  -0.00060  -0.00391   0.00457
           Z4           0.00142  -0.00103   0.00137   0.00688  -0.02314
           X5           0.01039  -0.02795  -0.00113   0.01813   0.01581
           Y5           0.00057  -0.03152   0.00063   0.00992   0.01920
           Z5           0.02573   0.00084  -0.00466  -0.01527   0.02143
           X6           0.00388   0.02113  -0.00305   0.00387  -0.00690
           Y6          -0.01137   0.04696  -0.00497   0.01463  -0.04036
           Z6          -0.02955   0.00780   0.00048   0.00936   0.00280
                          Z2        X3        Y3        Z3        X4
           Z2           0.02519
           X3           0.01169   0.26332
           Y3           0.02629   0.19479   0.29400
           Z3           0.01078   0.00866  -0.01048   0.00574
           X4           0.00286   0.02253  -0.00660  -0.01298   0.59957
           Y4          -0.00547   0.03788   0.02544   0.00474   0.01004
           Z4          -0.00546  -0.01981   0.01019   0.03539   0.13713
           X5          -0.00249  -0.03360   0.02552   0.01996  -0.45763
           Y5          -0.00409  -0.01147   0.00041   0.00546   0.00005
           Z5           0.00939  -0.01304  -0.01467  -0.01286   0.05691
           X6          -0.00259  -0.00352  -0.00913  -0.00356  -0.12150
           Y6           0.01111  -0.00453  -0.00924  -0.00485   0.00058
           Z6           0.00117   0.03300  -0.00226  -0.02640  -0.18562
                          Y4        Z4        X5        Y5        Z5
           Y4           0.01568
           Z4           0.02345   0.51469
           X5          -0.01372   0.00293   0.47645
           Y5          -0.02197   0.01667   0.01085   0.03811
           Z5          -0.00492  -0.10197  -0.01859   0.00085   0.07258
           X6          -0.00638  -0.12854  -0.01373  -0.00992  -0.03574
           Y6           0.00149  -0.02615  -0.01051  -0.00423  -0.00353
           Z6          -0.01720  -0.44402  -0.00068  -0.01952   0.03750
                          X6        Y6        Z6
           X6           0.13100
           Y6           0.01120   0.00540
           Z6           0.17349   0.02838   0.43126
 ITU=  0 -1  0  0  0  0 -1  0  0  0  0 -1  0  0 -1  1  0 -1  1
     Eigenvalues ---    0.00117   0.00213   0.00323   0.01353   0.03221
     Eigenvalues ---    0.05930   0.17454   0.22060   0.74774   0.84985
     Eigenvalues ---    1.04647   1.08037
 RFO step:  Lambda=-3.35956710D-08 EMin= 1.17179635D-03
 Quartic linear search produced a step of -0.05949.
 TrRot= -0.000127 -0.000018  0.000102  0.000012  0.000030  0.000012
 Variable       Old X    -DE/DX   Delta X   Delta X   Delta X     New X
                                 (Linear)    (Quad)   (Total)
    X1       -2.44406  -0.00004   0.00003  -0.00023  -0.00033  -2.44439
    Y1        0.24829  -0.00004  -0.00007  -0.00025  -0.00040   0.24789
    Z1        0.21094   0.00000  -0.00004   0.00046   0.00059   0.21153
    X2       -3.26750   0.00001   0.00013   0.00126   0.00121  -3.26630
    Y2        1.78410   0.00004   0.00000   0.00019   0.00010   1.78420
    Z2       -0.34768  -0.00001   0.00004  -0.00047  -0.00023  -0.34792
    X3       -3.54086   0.00003  -0.00011  -0.00055  -0.00076  -3.54162
    Y3       -1.20976   0.00000   0.00003   0.00018   0.00010  -1.20966
    Z3        0.06839   0.00001   0.00006  -0.00099  -0.00072   0.06767
    X4        2.64589   0.00000   0.00003  -0.00028  -0.00037   2.64552
    Y4       -0.27176   0.00001   0.00007   0.00014   0.00026  -0.27151
    Z4       -0.15240   0.00005  -0.00001   0.00000   0.00002  -0.15239
    X5        0.80554   0.00001   0.00000  -0.00021  -0.00033   0.80521
    Y5       -0.07379   0.00000  -0.00008  -0.00074  -0.00082  -0.07460
    Z5        0.04421   0.00000  -0.00009   0.00104   0.00103   0.04523
    X6        3.52744  -0.00002  -0.00008   0.00075   0.00058   3.52803
    Y6       -0.13147   0.00000   0.00005   0.00065   0.00077  -0.13071
    Z6        1.44408  -0.00004   0.00005  -0.00073  -0.00068   1.44340
         Item               Value     Threshold  Converged?
 Maximum Force            0.000047     0.000450     YES
 RMS     Force            0.000024     0.000300     YES
 Maximum Displacement     0.001206     0.001800     YES
 RMS     Displacement     0.000609     0.001200     YES
 Predicted change in Energy=-1.602104D-08
 Optimization completed.
    -- Stationary point found.
 GradGradGradGradGradGradGradGradGradGradGradGradGradGradGradGradGradGrad

                          Input orientation:                          
 ---------------------------------------------------------------------
 Center     Atomic      Atomic             Coordinates (Angstroms)
 Number     Number       Type             X           Y           Z
 ---------------------------------------------------------------------
      1          8           0       -1.293343    0.131388    0.111624
      2          1           0       -1.729088    0.944108   -0.183986
      3          1           0       -1.873743   -0.640177    0.036190
      4          8           0        1.400143   -0.143811   -0.080649
      5          1           0        0.426275   -0.039047    0.023393
      6          1           0        1.866642   -0.069572    0.764173
 ---------------------------------------------------------------------
                    Distance matrix (angstroms):
                    1          2          3          4          5
     1  O    0.000000
     2  H    0.968386   0.000000
     3  H    0.968436   1.606039   0.000000
     4  O    2.714327   3.314563   3.313361   0.000000
     5  H    1.730294   2.378063   2.377310   0.984997   0.000000
     6  H    3.232911   3.854326   3.853055   0.967913   1.619983
                    6
     6  H    0.000000
 Stoichiometry    H4O2
 Framework group  C1[X(H4O2)]
 Deg. of freedom    12
 Full point group                 C1      NOp   1
 Largest Abelian subgroup         C1      NOp   1
 Largest concise Abelian subgroup C1      NOp   1
                         Standard orientation:                         
 ---------------------------------------------------------------------
 Center     Atomic      Atomic             Coordinates (Angstroms)
 Number     Number       Type             X           Y           Z
 ---------------------------------------------------------------------
      1          8           0       -1.277382    0.000053    0.056416
      2          1           0       -1.784227    0.802574   -0.135520
      3          1           0       -1.782759   -0.803464   -0.135477
      4          8           0        1.431630    0.000013   -0.113355
      5          1           0        0.451351    0.000486   -0.017063
      6          1           0        1.881656   -0.000121    0.743577
 ---------------------------------------------------------------------
 Rotational constants (GHZ):    241.2009813      7.2330859      7.1812560

 **********************************************************************

            Population analysis using the SCF density.

 **********************************************************************

 Orbital symmetries:
       Occupied  (A) (A) (A) (A) (A) (A) (A) (A)
       Virtual   (A) (A) (A) (A) (A) (A) (A) (A) (A) (A) (A) (A)
                 (A) (A) (A) (A) (A) (A) (A) (A) (A) (A)
 The electronic state is 1-A.
 Alpha  occ. eigenvalues --   -1.08711  -1.00040  -0.60740  -0.53473  -0.42883
 Alpha  occ. eigenvalues --   -0.36801  -0.33072  -0.28576
 Alpha virt. eigenvalues --    0.02938   0.08689   0.09431   0.11985   0.15438
 Alpha virt. eigenvalues --    0.16343   0.18738   0.23285   0.24293   0.32576
 Alpha virt. eigenvalues --    0.88771   1.01307   1.09580   1.11767   1.14699
 Alpha virt. eigenvalues --    1.17209   1.19456   1.22529   1.26276   1.29630
 Alpha virt. eigenvalues --    2.00851   2.52523
          Condensed to atoms (all electrons):
               1          2          3          4          5          6
     1  O    6.314484   0.280596   0.280604  -0.018535  -0.000724   0.001606
     2  H    0.280596   0.306646  -0.021702   0.000274   0.000688  -0.000013
     3  H    0.280604  -0.021702   0.306677   0.000271   0.000686  -0.000013
     4  O   -0.018535   0.000274   0.000271   6.313986   0.277251   0.281142
     5  H   -0.000724   0.000688   0.000686   0.277251   0.281305  -0.023549
     6  H    0.001606  -0.000013  -0.000013   0.281142  -0.023549   0.359737
 Mulliken charges:
               1
     1  O   -0.858032
     2  H    0.433510
     3  H    0.433478
     4  O   -0.854389
     5  H    0.464343
     6  H    0.381090
 Sum of Mulliken charges =   0.00000
 Mulliken charges with hydrogens summed into heavy atoms:
               1
     1  O    0.008956
     4  O   -0.008956
 Electronic spatial extent (au):  <R**2>=            148.1032
 Charge=              0.0000 electrons
 Dipole moment (field-independent basis, Debye):
    X=             -4.2453    Y=             -0.0013    Z=              1.2777  Tot=              4.4334
 Quadrupole moment (field-independent basis, Debye-Ang):
   XX=             -9.1099   YY=            -11.8617   ZZ=            -14.1094
   XY=              0.0003   XZ=              5.9382   YZ=             -0.0001
 Traceless Quadrupole moment (field-independent basis, Debye-Ang):
   XX=              2.5838   YY=             -0.1680   ZZ=             -2.4158
   XY=              0.0003   XZ=              5.9382   YZ=             -0.0001
 Octapole moment (field-independent basis, Debye-Ang**2):
  XXX=            -17.8062  YYY=             -0.0040  ZZZ=              1.3572  XYY=             -7.5817
  XXY=              0.0024  XXZ=              5.3083  XZZ=              1.2660  YZZ=             -0.0003
  YYZ=              0.0007  XYZ=             -0.0006
 Hexadecapole moment (field-independent basis, Debye-Ang**3):
 XXXX=           -140.6048 YYYY=            -14.9382 ZZZZ=            -16.6992 XXXY=             -0.0215
 XXXZ=             22.6765 YYYX=              0.0039 YYYZ=              0.0004 ZZZX=              5.3007
 ZZZY=             -0.0003 XXYY=            -24.6547 XXZZ=            -30.7748 YYZZ=             -5.6676
 XXYZ=             -0.0012 YYXZ=              1.9603 ZZXY=             -0.0004
 N-N= 2.618862872285D+01 E-N=-1.345688031038D+02  KE= 2.720979106960D+01
 1\1\GINC-HUMAN\FOpt\RPBE1PBE\SDDAll\H4O2\HUMAN\25-Jul-2019\0\\# PBE1PB
 E/SDDAll scf=(maxcycle=512) opt=(cartesian,maxcycle=512)\\Cellular Aut
 omata job -34.4117758606\\0,1\O,-1.2933428325,0.1313884788,0.111623675
 4\H,-1.7290878238,0.9441076782,-0.1839857816\H,-1.8737430727,-0.640177
 0668,0.0361902512\O,1.400142916,-0.1438111545,-0.0806485189\H,0.426274
 5638,-0.0390465505,0.0233928251\H,1.8666422496,-0.0695723887,0.7641725
 508\\Version=ES64L-G09RevD.01\State=1-A\HF=-34.4139096\RMSD=2.801e-09\
 RMSF=2.431e-05\Dipole=-1.6521294,0.2231354,0.5128738\Quadrupole=2.0916
 974,-0.2494801,-1.8422173,0.3932474,4.2992159,-0.6352676\PG=C01 [X(H4O
 2)]\\@


 THE ONLY TROUBLE WITH A SURE THING IS THE UNCERTAINTY.
     -- FROM A TEABAG (BELONGING TO W.H.?)
 Job cpu time:       0 days  0 hours  4 minutes 37.1 seconds.
 File lengths (MBytes):  RWF=      5 Int=      0 D2E=      0 Chk=      1 Scr=      1
 Normal termination of Gaussian 09 at Thu Jul 25 18:23:00 2019.
