 Entering Gaussian System, Link 0=g09
 Input=Kick0009-opt.com
 Output=Kick0009-opt.log
 Initial command:
 /home/human/g09/l1.exe "/tmp/Gau-8015.inp" -scrdir="/tmp/"
 Entering Link 1 = /home/human/g09/l1.exe PID=      8023.
  
 Copyright (c) 1988,1990,1992,1993,1995,1998,2003,2009,2013,
            Gaussian, Inc.  All Rights Reserved.
  
 This is part of the Gaussian(R) 09 program.  It is based on
 the Gaussian(R) 03 system (copyright 2003, Gaussian, Inc.),
 the Gaussian(R) 98 system (copyright 1998, Gaussian, Inc.),
 the Gaussian(R) 94 system (copyright 1995, Gaussian, Inc.),
 the Gaussian 92(TM) system (copyright 1992, Gaussian, Inc.),
 the Gaussian 90(TM) system (copyright 1990, Gaussian, Inc.),
 the Gaussian 88(TM) system (copyright 1988, Gaussian, Inc.),
 the Gaussian 86(TM) system (copyright 1986, Carnegie Mellon
 University), and the Gaussian 82(TM) system (copyright 1983,
 Carnegie Mellon University). Gaussian is a federally registered
 trademark of Gaussian, Inc.
  
 This software contains proprietary and confidential information,
 including trade secrets, belonging to Gaussian, Inc.
  
 This software is provided under written license and may be
 used, copied, transmitted, or stored only in accord with that
 written license.
  
 The following legend is applicable only to US Government
 contracts under FAR:
  
                    RESTRICTED RIGHTS LEGEND
  
 Use, reproduction and disclosure by the US Government is
 subject to restrictions as set forth in subparagraphs (a)
 and (c) of the Commercial Computer Software - Restricted
 Rights clause in FAR 52.227-19.
  
 Gaussian, Inc.
 340 Quinnipiac St., Bldg. 40, Wallingford CT 06492
  
  
 ---------------------------------------------------------------
 Warning -- This program may not be used in any manner that
 competes with the business of Gaussian, Inc. or will provide
 assistance to any competitor of Gaussian, Inc.  The licensee
 of this program is prohibited from giving any competitor of
 Gaussian, Inc. access to this program.  By using this program,
 the user acknowledges that Gaussian, Inc. is engaged in the
 business of creating and licensing software in the field of
 computational chemistry and represents and warrants to the
 licensee that it is not a competitor of Gaussian, Inc. and that
 it will not use this program in any manner prohibited above.
 ---------------------------------------------------------------
  

 Cite this work as:
 Gaussian 09, Revision D.01,
 M. J. Frisch, G. W. Trucks, H. B. Schlegel, G. E. Scuseria, 
 M. A. Robb, J. R. Cheeseman, G. Scalmani, V. Barone, B. Mennucci, 
 G. A. Petersson, H. Nakatsuji, M. Caricato, X. Li, H. P. Hratchian, 
 A. F. Izmaylov, J. Bloino, G. Zheng, J. L. Sonnenberg, M. Hada, 
 M. Ehara, K. Toyota, R. Fukuda, J. Hasegawa, M. Ishida, T. Nakajima, 
 Y. Honda, O. Kitao, H. Nakai, T. Vreven, J. A. Montgomery, Jr., 
 J. E. Peralta, F. Ogliaro, M. Bearpark, J. J. Heyd, E. Brothers, 
 K. N. Kudin, V. N. Staroverov, T. Keith, R. Kobayashi, J. Normand, 
 K. Raghavachari, A. Rendell, J. C. Burant, S. S. Iyengar, J. Tomasi, 
 M. Cossi, N. Rega, J. M. Millam, M. Klene, J. E. Knox, J. B. Cross, 
 V. Bakken, C. Adamo, J. Jaramillo, R. Gomperts, R. E. Stratmann, 
 O. Yazyev, A. J. Austin, R. Cammi, C. Pomelli, J. W. Ochterski, 
 R. L. Martin, K. Morokuma, V. G. Zakrzewski, G. A. Voth, 
 P. Salvador, J. J. Dannenberg, S. Dapprich, A. D. Daniels, 
 O. Farkas, J. B. Foresman, J. V. Ortiz, J. Cioslowski, 
 and D. J. Fox, Gaussian, Inc., Wallingford CT, 2013.
 
 ******************************************
 Gaussian 09:  ES64L-G09RevD.01 24-Apr-2013
                25-Jul-2019 
 ******************************************
 %NProc=4
 Will use up to    4 processors via shared memory.
 %mem=4GB
 ----------------------------------------------------------------
 # PBE1PBE/SDDAll scf=(maxcycle=512) opt=(cartesian,maxcycle=512)
 ----------------------------------------------------------------
 1/6=512,10=7,14=-1,18=10,26=3,38=1/1,3;
 2/12=2,17=6,18=5,29=2,40=1/2;
 3/5=17,6=6,11=2,16=1,25=1,30=1,71=1,74=-13/1,2,3;
 4//1;
 5/5=2,7=512,38=5/2;
 6/7=2,8=2,9=2,10=2,28=1/1;
 7/7=1,29=1/1,2,3,16;
 1/6=512,10=7,14=-1,18=10,26=3/3(2);
 2/29=1/2;
 99/12=1/99;
 2/29=1/2;
 3/5=17,6=6,11=2,16=1,25=1,30=1,71=1,74=-13/1,2,3;
 4/5=5,16=3,69=1/1;
 5/5=2,7=512,38=5/2;
 7/7=1/1,2,3,16;
 1/6=512,14=-1,18=10,26=3/3(-5);
 2/29=1/2;
 6/7=2,8=2,9=2,10=2,19=2,28=1/1;
 99/9=1,12=1/99;
 -----------------------
 Cellular Automata job 9
 -----------------------
 Symbolic Z-matrix:
 Charge =  0 Multiplicity = 1
 O                     2.39118   0.07102   3.03491 
 H                     1.56443   0.2073    3.55708 
 H                     2.07536  -0.11421   2.11801 
 O                    -1.12153   0.37411   2.12365 
 H                    -1.85588   0.88708   1.70853 
 H                    -0.80063  -0.22188   1.40489 
 

 GradGradGradGradGradGradGradGradGradGradGradGradGradGradGradGradGradGrad
 Berny optimization.
 Initialization pass.
 No Z-matrix variables, so optimization will use Cartesian coordinates.
 Trust Radius=3.00D-01 FncErr=1.00D-07 GrdErr=1.00D-06
 Number of steps in this run=    100 maximum allowed number of steps=    100.
 GradGradGradGradGradGradGradGradGradGradGradGradGradGradGradGradGradGrad

 ---------------------------------------------------------------------------------------------------
                            Z-MATRIX (ANGSTROMS AND DEGREES)
   CD    Cent   Atom    N1       Length/X        N2       Alpha/Y        N3        Beta/Z          J
 ---------------------------------------------------------------------------------------------------
      1      1  O        0   2.391180          0.071020          3.034910
      2      2  H        0   1.564430          0.207300          3.557080
      3      3  H        0   2.075360         -0.114210          2.118010
      4      4  O        0  -1.121530          0.374110          2.123650
      5      5  H        0  -1.855880          0.887080          1.708530
      6      6  H        0  -0.800630         -0.221880          1.404890
 ---------------------------------------------------------------------------------------------------
                         Z-Matrix orientation:                         
 ---------------------------------------------------------------------
 Center     Atomic      Atomic             Coordinates (Angstroms)
 Number     Number       Type             X           Y           Z
 ---------------------------------------------------------------------
      1          8           0        2.391180    0.071020    3.034910
      2          1           0        1.564430    0.207300    3.557080
      3          1           0        2.075360   -0.114210    2.118010
      4          8           0       -1.121530    0.374110    2.123650
      5          1           0       -1.855880    0.887080    1.708530
      6          1           0       -0.800630   -0.221880    1.404890
 ---------------------------------------------------------------------
                    Distance matrix (angstroms):
                    1          2          3          4          5
     1  O    0.000000
     2  H    0.987294   0.000000
     3  H    0.987298   1.560558   0.000000
     4  O    3.641619   3.049086   3.233975   0.000000
     5  H    4.523578   3.946867   4.077365   0.987286   0.000000
     6  H    3.595887   3.226395   2.965038   0.987318   1.560622
                    6
     6  H    0.000000
 Stoichiometry    H4O2
 Framework group  C1[X(H4O2)]
 Deg. of freedom    12
 Full point group                 C1      NOp   1
 Largest Abelian subgroup         C1      NOp   1
 Largest concise Abelian subgroup C1      NOp   1
                         Standard orientation:                         
 ---------------------------------------------------------------------
 Center     Atomic      Atomic             Coordinates (Angstroms)
 Number     Number       Type             X           Y           Z
 ---------------------------------------------------------------------
      1          8           0        1.915040   -0.019366    0.021766
      2          1           0        1.253374   -0.718927   -0.196321
      3          1           0        1.379022    0.803717    0.121657
      4          8           0       -1.725477   -0.088511   -0.035223
      5          1           0       -2.588336   -0.079884    0.444499
      6          1           0       -1.560564    0.858110   -0.262179
 ---------------------------------------------------------------------
 Rotational constants (GHZ):    213.4829826      4.2368816      4.1780290
 Standard basis: SDDAll (6D, 10F)
 There are    30 symmetry adapted cartesian basis functions of A   symmetry.
 There are    30 symmetry adapted basis functions of A   symmetry.
    30 basis functions,    54 primitive gaussians,    30 cartesian basis functions
     8 alpha electrons        8 beta electrons
       nuclear repulsion energy        22.9874133178 Hartrees.
 NAtoms=    6 NActive=    6 NUniq=    6 SFac= 1.00D+00 NAtFMM=   60 NAOKFM=F Big=F
 Integral buffers will be    131072 words long.
 Raffenetti 2 integral format.
 Two-electron integral symmetry is turned on.
 One-electron integrals computed using PRISM.
   1 Symmetry operations used in ECPInt.
 ECPInt:  NShTT=     171 NPrTT=     619 LenC2=     172 LenP2D=     552.
 LDataN:  DoStor=T MaxTD1= 4 Len=   56
 NBasis=    30 RedAO= T EigKep=  4.93D-02  NBF=    30
 NBsUse=    30 1.00D-06 EigRej= -1.00D+00 NBFU=    30
 ExpMin= 7.02D-02 ExpMax= 4.71D+01 ExpMxC= 4.71D+01 IAcc=2 IRadAn=         4 AccDes= 0.00D+00
 Harris functional with IExCor= 1009 and IRadAn=       4 diagonalized for initial guess.
 HarFok:  IExCor= 1009 AccDes= 0.00D+00 IRadAn=         4 IDoV= 1 UseB2=F ITyADJ=14
 ICtDFT=  3500011 ScaDFX=  1.000000  1.000000  1.000000  1.000000
 FoFCou: FMM=F IPFlag=           0 FMFlag=      100000 FMFlg1=           0
         NFxFlg=           0 DoJE=T BraDBF=F KetDBF=T FulRan=T
         wScrn=  0.000000 ICntrl=     500 IOpCl=  0 I1Cent=   200000004 NGrid=           0
         NMat0=    1 NMatS0=      1 NMatT0=    0 NMatD0=    1 NMtDS0=    0 NMtDT0=    0
 Petite list used in FoFCou.
 Keep R1 ints in memory in canonical form, NReq=1237769.
 Requested convergence on RMS density matrix=1.00D-08 within 512 cycles.
 Requested convergence on MAX density matrix=1.00D-06.
 Requested convergence on             energy=1.00D-06.
 No special actions if energy rises.
 Integral accuracy reduced to 1.0D-05 until final iterations.
 Initial convergence to 1.0D-05 achieved.  Increase integral accuracy.
 SCF Done:  E(RPBE1PBE) =  -34.3992149581     A.U. after   12 cycles
            NFock= 12  Conv=0.12D-08     -V/T= 2.2752

 **********************************************************************

            Population analysis using the SCF density.

 **********************************************************************

 Orbital symmetries:
       Occupied  (A) (A) (A) (A) (A) (A) (A) (A)
       Virtual   (A) (A) (A) (A) (A) (A) (A) (A) (A) (A) (A) (A)
                 (A) (A) (A) (A) (A) (A) (A) (A) (A) (A)
 The electronic state is 1-A.
 Alpha  occ. eigenvalues --   -1.06999  -1.03676  -0.57275  -0.53951  -0.41388
 Alpha  occ. eigenvalues --   -0.37931  -0.34939  -0.31684
 Alpha virt. eigenvalues --    0.03065   0.05810   0.09169   0.10807   0.13933
 Alpha virt. eigenvalues --    0.16130   0.17241   0.18991   0.22424   0.25197
 Alpha virt. eigenvalues --    0.88051   0.99135   1.04677   1.09215   1.13157
 Alpha virt. eigenvalues --    1.15853   1.16773   1.18850   1.21607   1.25074
 Alpha virt. eigenvalues --    2.09200   2.14709
          Condensed to atoms (all electrons):
               1          2          3          4          5          6
     1  O    6.218486   0.278945   0.277714   0.003918   0.000255  -0.000364
     2  H    0.278945   0.340859  -0.028676   0.001989   0.000017  -0.000057
     3  H    0.277714  -0.028676   0.369002   0.001687   0.000009   0.000060
     4  O    0.003918   0.001989   0.001687   6.225168   0.279945   0.278706
     5  H    0.000255   0.000017   0.000009   0.279945   0.346837  -0.027664
     6  H   -0.000364  -0.000057   0.000060   0.278706  -0.027664   0.366681
 Mulliken charges:
               1
     1  O   -0.778954
     2  H    0.406922
     3  H    0.380204
     4  O   -0.791412
     5  H    0.400600
     6  H    0.382640
 Sum of Mulliken charges =   0.00000
 Mulliken charges with hydrogens summed into heavy atoms:
               1
     1  O    0.008172
     4  O   -0.008172
 Electronic spatial extent (au):  <R**2>=            226.4074
 Charge=              0.0000 electrons
 Dipole moment (field-independent basis, Debye):
    X=             -4.2711    Y=              2.2892    Z=              0.3183  Tot=              4.8564
 Quadrupole moment (field-independent basis, Debye-Ang):
   XX=            -16.3905   YY=            -10.2825   ZZ=            -14.8287
   XY=             -2.4070   XZ=             -2.6042   YZ=             -0.0724
 Traceless Quadrupole moment (field-independent basis, Debye-Ang):
   XX=             -2.5566   YY=              3.5514   ZZ=             -0.9948
   XY=             -2.4070   XZ=             -2.6042   YZ=             -0.0724
 Octapole moment (field-independent basis, Debye-Ang**2):
  XXX=            -48.6579  YYY=              2.3982  ZZZ=              0.2974  XYY=              0.9547
  XXY=              5.4358  XXZ=              6.3528  XZZ=             -2.2382  YZZ=              0.4916
  YYZ=             -0.2886  XYZ=              2.4351
 Hexadecapole moment (field-independent basis, Debye-Ang**3):
 XXXX=           -284.5979 YYYY=            -14.4359 ZZZZ=            -16.5975 XXXY=             -2.7900
 XXXZ=            -19.9481 YYYX=             -2.3290 YYYZ=             -0.1254 ZZZX=             -2.1431
 ZZZY=             -0.0940 XXYY=            -43.2096 XXZZ=            -53.3240 YYZZ=             -5.4693
 XXYZ=             -0.7386 YYXZ=             -0.1227 ZZXY=             -0.4897
 N-N= 2.298741331784D+01 E-N=-1.278565648737D+02  KE= 2.697621275552D+01
   1 Symmetry operations used in ECPInt.
 ECPInt:  NShTT=     171 NPrTT=     619 LenC2=     172 LenP2D=     552.
 LDataN:  DoStor=T MaxTD1= 5 Len=  102
 Calling FoFJK, ICntrl=      2127 FMM=F ISym2X=0 I1Cent= 0 IOpClX= 0 NMat=1 NMatS=1 NMatT=0.
 ***** Axes restored to original set *****
 -------------------------------------------------------------------
 Center     Atomic                   Forces (Hartrees/Bohr)
 Number     Number              X              Y              Z
 -------------------------------------------------------------------
      1        8          -0.024495478   -0.002399493   -0.009221512
      2        1           0.011887994    0.000917332    0.000626346
      3        1           0.011253229    0.002416263    0.008743296
      4        8          -0.005881923   -0.002383274   -0.025834414
      5        1           0.006901914   -0.000997642    0.013205577
      6        1           0.000334264    0.002446814    0.012480707
 -------------------------------------------------------------------
 Cartesian Forces:  Max     0.025834414 RMS     0.010890564

 GradGradGradGradGradGradGradGradGradGradGradGradGradGradGradGradGradGrad
 Berny optimization.
 Search for a local minimum.
 Step number   1 out of a maximum of  100
 All quantities printed in internal units (Hartrees-Bohrs-Radians)
 Second derivative matrix not updated -- first step.
 The second derivative matrix:
                          X1        Y1        Z1        X2        Y2
           X1           0.50415
           Y1          -0.02340   0.02731
           Z1          -0.03751   0.12512   0.58325
           X2          -0.38802   0.05618   0.20848   0.36426
           Y2           0.04693  -0.00999  -0.04025  -0.05382   0.01068
           Z2           0.16496  -0.03892  -0.15935  -0.20077   0.04248
           X3          -0.11613  -0.03279  -0.17096   0.02376   0.00689
           Y3          -0.02354  -0.01732  -0.08487  -0.00236  -0.00069
           Z3          -0.12744  -0.08620  -0.42390  -0.00771  -0.00223
           X4           0.00000   0.00000   0.00000   0.00000   0.00000
           Y4           0.00000   0.00000   0.00000   0.00000   0.00000
           Z4           0.00000   0.00000   0.00000   0.00000   0.00000
           X5           0.00000   0.00000   0.00000   0.00000   0.00000
           Y5           0.00000   0.00000   0.00000   0.00000   0.00000
           Z5           0.00000   0.00000   0.00000   0.00000   0.00000
           X6           0.00000   0.00000   0.00000   0.00000   0.00000
           Y6           0.00000   0.00000   0.00000   0.00000   0.00000
           Z6           0.00000   0.00000   0.00000   0.00000   0.00000
                          Z2        X3        Y3        Z3        X4
           Z2           0.17097
           X3           0.03582   0.09238
           Y3          -0.00356   0.02590   0.01801
           Z3          -0.01162   0.13515   0.08844   0.43551
           X4           0.00000   0.00000   0.00000   0.00000   0.34282
           Y4           0.00000   0.00000   0.00000   0.00000  -0.28860
           Z4           0.00000   0.00000   0.00000   0.00000   0.07487
           X5           0.00000   0.00000   0.00000   0.00000  -0.27302
           Y5           0.00000   0.00000   0.00000   0.00000   0.18106
           Z5           0.00000   0.00000   0.00000   0.00000  -0.17771
           X6           0.00000   0.00000   0.00000   0.00000  -0.06980
           Y6           0.00000   0.00000   0.00000   0.00000   0.10754
           Z6           0.00000   0.00000   0.00000   0.00000   0.10285
                          Y4        Z4        X5        Y5        Z5
           Y4           0.31766
           Z4           0.11784   0.45421
           X5           0.19393  -0.14654   0.27755
           Y5          -0.13741   0.07588  -0.19646   0.14598
           Z5           0.10493  -0.14695   0.15066  -0.08987   0.12238
           X6           0.09467   0.07168  -0.00453   0.01540   0.02705
           Y6          -0.18026  -0.19372   0.00253  -0.00858  -0.01506
           Z6          -0.22278  -0.30726  -0.00412   0.01399   0.02457
                          X6        Y6        Z6
           X6           0.07434
           Y6          -0.11007   0.18883
           Z6          -0.09873   0.20879   0.28269
 ITU=  0
     Eigenvalues ---    0.00000   0.00000   0.00000   0.00000   0.00000
     Eigenvalues ---    0.00000   0.13992   0.14508   0.81476   0.87462
     Eigenvalues ---    0.95039   1.02238
 RFO step:  Lambda=-6.57585859D-03 EMin=-5.55111512D-16
 Linear search not attempted -- first point.
 Maximum step size (   0.300) exceeded in Quadratic search.
    -- Step size scaled by   0.447
 TrRot=  0.038612 -0.002879 -0.012149  0.037996 -0.006139 -0.042475
 Variable       Old X    -DE/DX   Delta X   Delta X   Delta X     New X
                                 (Linear)    (Quad)   (Total)
    X1        4.51868  -0.02450   0.00000  -0.06494  -0.06127   4.45741
    Y1        0.13421  -0.00240   0.00000  -0.03390  -0.05807   0.07614
    Z1        5.73515  -0.00922   0.00000   0.01180   0.02688   5.76203
    X2        2.95634   0.01189   0.00000  -0.05119  -0.05166   2.90468
    Y2        0.39174   0.00092   0.00000   0.08760   0.07014   0.46188
    Z2        6.72191   0.00063   0.00000  -0.01537  -0.00970   6.71221
    X3        3.92186   0.01125   0.00000   0.00698   0.02042   3.94228
    Y3       -0.21583   0.00242   0.00000   0.07126   0.04985  -0.16597
    Z3        4.00246   0.00874   0.00000  -0.02255  -0.01071   3.99175
    X4       -2.11938  -0.00588   0.00000   0.12010   0.13761  -1.98178
    Y4        0.70697  -0.00238   0.00000   0.00481   0.00995   0.71692
    Z4        4.01312  -0.02583   0.00000  -0.04434  -0.06864   3.94448
    X5       -3.50710   0.00690   0.00000   0.02011   0.04558  -3.46152
    Y5        1.67634  -0.00100   0.00000   0.01277   0.02470   1.70104
    Z5        3.22865   0.01321   0.00000   0.16378   0.13061   3.35927
    X6       -1.51297   0.00033   0.00000  -0.11101  -0.09068  -1.60365
    Y6       -0.41929   0.00245   0.00000  -0.10037  -0.09658  -0.51587
    Z6        2.65486   0.01248   0.00000  -0.04616  -0.06845   2.58641
         Item               Value     Threshold  Converged?
 Maximum Force            0.025834     0.000450     NO 
 RMS     Force            0.010891     0.000300     NO 
 Maximum Displacement     0.137606     0.001800     NO 
 RMS     Displacement     0.068425     0.001200     NO 
 Predicted change in Energy=-2.570418D-03
 GradGradGradGradGradGradGradGradGradGradGradGradGradGradGradGradGradGrad

                          Input orientation:                          
 ---------------------------------------------------------------------
 Center     Atomic      Atomic             Coordinates (Angstroms)
 Number     Number       Type             X           Y           Z
 ---------------------------------------------------------------------
      1          8           0        2.358760    0.040290    3.049135
      2          1           0        1.537091    0.244415    3.551947
      3          1           0        2.086166   -0.087829    2.112343
      4          8           0       -1.048712    0.379377    2.087329
      5          1           0       -1.831760    0.900153    1.777648
      6          1           0       -0.848614   -0.272986    1.368668
 ---------------------------------------------------------------------
                    Distance matrix (angstroms):
                    1          2          3          4          5
     1  O    0.000000
     2  H    0.984696   0.000000
     3  H    0.984024   1.576176   0.000000
     4  O    3.556812   2.974844   3.169600   0.000000
     5  H    4.462791   3.863585   4.054414   0.990088   0.000000
     6  H    3.634469   3.275058   3.033194   0.991005   1.584328
                    6
     6  H    0.000000
 Stoichiometry    H4O2
 Framework group  C1[X(H4O2)]
 Deg. of freedom    12
 Full point group                 C1      NOp   1
 Largest Abelian subgroup         C1      NOp   1
 Largest concise Abelian subgroup C1      NOp   1
                         Standard orientation:                         
 ---------------------------------------------------------------------
 Center     Atomic      Atomic             Coordinates (Angstroms)
 Number     Number       Type             X           Y           Z
 ---------------------------------------------------------------------
      1          8           0        1.878781   -0.018787    0.008838
      2          1           0        1.221019   -0.724323   -0.189137
      3          1           0        1.361677    0.792202    0.216690
      4          8           0       -1.677415   -0.074233   -0.027388
      5          1           0       -2.563326   -0.208416    0.393836
      6          1           0       -1.630300    0.884699   -0.272989
 ---------------------------------------------------------------------
 Rotational constants (GHZ):    211.2046420      4.4177341      4.3514541
 Standard basis: SDDAll (6D, 10F)
 There are    30 symmetry adapted cartesian basis functions of A   symmetry.
 There are    30 symmetry adapted basis functions of A   symmetry.
    30 basis functions,    54 primitive gaussians,    30 cartesian basis functions
     8 alpha electrons        8 beta electrons
       nuclear repulsion energy        23.1451252804 Hartrees.
 NAtoms=    6 NActive=    6 NUniq=    6 SFac= 1.00D+00 NAtFMM=   60 NAOKFM=F Big=F
 Integral buffers will be    131072 words long.
 Raffenetti 2 integral format.
 Two-electron integral symmetry is turned on.
 One-electron integrals computed using PRISM.
   1 Symmetry operations used in ECPInt.
 ECPInt:  NShTT=     171 NPrTT=     619 LenC2=     172 LenP2D=     552.
 LDataN:  DoStor=T MaxTD1= 4 Len=   56
 NBasis=    30 RedAO= T EigKep=  4.85D-02  NBF=    30
 NBsUse=    30 1.00D-06 EigRej= -1.00D+00 NBFU=    30
 Initial guess from the checkpoint file:  "/tmp/Gau-8023.chk"
 B after Tr=     0.000000    0.000000    0.000000
         Rot=    0.999599   -0.028300   -0.000246   -0.001211 Ang=  -3.25 deg.
 ExpMin= 7.02D-02 ExpMax= 4.71D+01 ExpMxC= 4.71D+01 IAcc=2 IRadAn=         4 AccDes= 0.00D+00
 Harris functional with IExCor= 1009 and IRadAn=       4 diagonalized for initial guess.
 HarFok:  IExCor= 1009 AccDes= 0.00D+00 IRadAn=         4 IDoV= 1 UseB2=F ITyADJ=14
 ICtDFT=  3500011 ScaDFX=  1.000000  1.000000  1.000000  1.000000
 FoFCou: FMM=F IPFlag=           0 FMFlag=      100000 FMFlg1=           0
         NFxFlg=           0 DoJE=T BraDBF=F KetDBF=T FulRan=T
         wScrn=  0.000000 ICntrl=     500 IOpCl=  0 I1Cent=   200000004 NGrid=           0
         NMat0=    1 NMatS0=      1 NMatT0=    0 NMatD0=    1 NMtDS0=    0 NMtDT0=    0
 Petite list used in FoFCou.
 Keep R1 ints in memory in canonical form, NReq=1237769.
 Requested convergence on RMS density matrix=1.00D-08 within 512 cycles.
 Requested convergence on MAX density matrix=1.00D-06.
 Requested convergence on             energy=1.00D-06.
 No special actions if energy rises.
 Integral accuracy reduced to 1.0D-05 until final iterations.
 Initial convergence to 1.0D-05 achieved.  Increase integral accuracy.
 SCF Done:  E(RPBE1PBE) =  -34.4012156552     A.U. after   11 cycles
            NFock= 11  Conv=0.99D-09     -V/T= 2.2748
   1 Symmetry operations used in ECPInt.
 ECPInt:  NShTT=     171 NPrTT=     619 LenC2=     172 LenP2D=     552.
 LDataN:  DoStor=T MaxTD1= 5 Len=  102
 Calling FoFJK, ICntrl=      2127 FMM=F ISym2X=0 I1Cent= 0 IOpClX= 0 NMat=1 NMatS=1 NMatT=0.
 ***** Axes restored to original set *****
 -------------------------------------------------------------------
 Center     Atomic                   Forces (Hartrees/Bohr)
 Number     Number              X              Y              Z
 -------------------------------------------------------------------
      1        8          -0.018243658    0.000107503   -0.007496068
      2        1           0.009315341   -0.000857567   -0.001704782
      3        1           0.007251423    0.001639307    0.009063734
      4        8          -0.009533696   -0.003851558   -0.023986784
      5        1           0.011805034   -0.004255735    0.010412955
      6        1          -0.000594444    0.007218050    0.013710945
 -------------------------------------------------------------------
 Cartesian Forces:  Max     0.023986784 RMS     0.010011959

 GradGradGradGradGradGradGradGradGradGradGradGradGradGradGradGradGradGrad
 Berny optimization.
 Search for a local minimum.
 Step number   2 out of a maximum of  100
 All quantities printed in internal units (Hartrees-Bohrs-Radians)
 Update second derivatives using D2CorN and points    1    2
 DE= -2.00D-03 DEPred=-2.57D-03 R= 7.78D-01
 TightC=F SS=  1.41D+00  RLast= 2.90D-01 DXNew= 5.0454D-01 8.7091D-01
 Trust test= 7.78D-01 RLast= 2.90D-01 DXMaxT set to 5.05D-01
 The second derivative matrix:
                          X1        Y1        Z1        X2        Y2
           X1           0.50071
           Y1          -0.02434   0.02861
           Z1          -0.03778   0.12386   0.58414
           X2          -0.38825   0.05791   0.20709   0.36631
           Y2           0.04821  -0.01143  -0.03878  -0.05579   0.01226
           Z2           0.16392  -0.03953  -0.15918  -0.20122   0.04324
           X3          -0.11518  -0.03265  -0.17079   0.02368   0.00668
           Y3          -0.02215  -0.01788  -0.08404  -0.00336  -0.00011
           Z3          -0.12607  -0.08450  -0.42481  -0.00608  -0.00427
           X4           0.00140  -0.00387   0.00336  -0.00481   0.00437
           Y4          -0.00077  -0.00110   0.00062  -0.00108   0.00131
           Z4          -0.00505  -0.00220   0.00024  -0.00128   0.00281
           X5           0.00391   0.00199  -0.00040   0.00132  -0.00250
           Y5          -0.00059  -0.00149   0.00097  -0.00157   0.00175
           Z5           0.00433  -0.00083   0.00187  -0.00203   0.00071
           X6          -0.00260   0.00096  -0.00148   0.00175  -0.00096
           Y6          -0.00036   0.00330  -0.00263   0.00390  -0.00378
           Z6           0.00065   0.00320  -0.00226   0.00352  -0.00371
                          Z2        X3        Y3        Z3        X4
           Z2           0.17073
           X3           0.03613   0.09212
           Y3          -0.00295   0.02559   0.01802
           Z3          -0.01149   0.13466   0.08708   0.43610
           X4           0.00132  -0.00005   0.00202  -0.00418   0.35387
           Y4          -0.00004   0.00029   0.00085  -0.00045  -0.28585
           Z4          -0.00135   0.00147   0.00254   0.00132   0.07914
           X5           0.00098  -0.00116  -0.00214  -0.00078  -0.27711
           Y5           0.00010   0.00027   0.00105  -0.00090   0.18493
           Z5           0.00172  -0.00104  -0.00053  -0.00345  -0.17397
           X6          -0.00113   0.00059   0.00003   0.00246  -0.07332
           Y6          -0.00083  -0.00018  -0.00192   0.00304   0.09839
           Z6          -0.00044  -0.00042  -0.00210   0.00232   0.09434
                          Y4        Z4        X5        Y5        Z5
           Y4           0.31800
           Z4           0.11718   0.44720
           X5           0.19428  -0.14126   0.27363
           Y5          -0.13678   0.07571  -0.19657   0.14702
           Z5           0.10706  -0.13953   0.14455  -0.08740   0.11954
           X6           0.09312   0.06698  -0.00059   0.01352   0.02816
           Y6          -0.18229  -0.19603   0.00493  -0.01155  -0.01902
           Z6          -0.22436  -0.30788  -0.00308   0.01152   0.01984
                          X6        Y6        Z6
           X6           0.07417
           Y6          -0.10668   0.19623
           Z6          -0.09499   0.21546   0.28842
 ITU=  1  0
     Eigenvalues ---   -0.00171   0.00000   0.00000   0.00000   0.00000
     Eigenvalues ---    0.01611   0.14087   0.14510   0.81560   0.87963
     Eigenvalues ---    0.95167   1.02701
 RFO step:  Lambda=-5.76796152D-03 EMin=-1.70874812D-03
 Quartic linear search produced a step of  0.48216.
 Maximum step size (   0.505) exceeded in Quadratic search.
    -- Step size scaled by   0.499
 TrRot= -0.027483 -0.004891  0.006598  1.944665 -0.007522 -1.926233
 Variable       Old X    -DE/DX   Delta X   Delta X   Delta X     New X
                                 (Linear)    (Quad)   (Total)
    X1        4.45741  -0.01824  -0.02954  -0.10198  -0.14620   4.31121
    Y1        0.07614   0.00011  -0.02800   0.07206   0.07871   0.15485
    Z1        5.76203  -0.00750   0.01296  -0.03392  -0.02500   5.73703
    X2        2.90468   0.00932  -0.02491  -0.11979  -0.16376   2.74092
    Y2        0.46188  -0.00086   0.03382   0.01202   0.04523   0.50711
    Z2        6.71221  -0.00170  -0.00468  -0.06532  -0.06723   6.64498
    X3        3.94228   0.00725   0.00985  -0.03248  -0.03624   3.90605
    Y3       -0.16597   0.00164   0.02404  -0.05705   0.00663  -0.15934
    Z3        3.99175   0.00906  -0.00516  -0.01879  -0.02913   3.96262
    X4       -1.98178  -0.00953   0.06635   0.00696   0.04680  -1.93497
    Y4        0.71692  -0.00385   0.00480  -0.16382  -0.22705   0.48987
    Z4        3.94448  -0.02399  -0.03309   0.06449   0.04681   3.99129
    X5       -3.46152   0.01181   0.02198   0.33453   0.30285  -3.15867
    Y5        1.70104  -0.00426   0.01191   0.25463   0.17971   1.88075
    Z5        3.35927   0.01041   0.06298   0.04811   0.13959   3.49886
    X6       -1.60365  -0.00059  -0.04372   0.05048  -0.00346  -1.60711
    Y6       -0.51587   0.00722  -0.04657   0.01516  -0.08324  -0.59911
    Z6        2.58641   0.01371  -0.03300  -0.03888  -0.06504   2.52137
         Item               Value     Threshold  Converged?
 Maximum Force            0.023987     0.000450     NO 
 RMS     Force            0.010012     0.000300     NO 
 Maximum Displacement     0.302851     0.001800     NO 
 RMS     Displacement     0.123465     0.001200     NO 
 Predicted change in Energy=-2.801777D-03
 GradGradGradGradGradGradGradGradGradGradGradGradGradGradGradGradGradGrad

                          Input orientation:                          
 ---------------------------------------------------------------------
 Center     Atomic      Atomic             Coordinates (Angstroms)
 Number     Number       Type             X           Y           Z
 ---------------------------------------------------------------------
      1          8           0        2.281396    0.081943    3.035906
      2          1           0        1.450431    0.268349    3.516371
      3          1           0        2.066991   -0.084320    2.096927
      4          8           0       -1.023944    0.259230    2.112101
      5          1           0       -1.671498    0.995252    1.851515
      6          1           0       -0.850445   -0.317034    1.334251
 ---------------------------------------------------------------------
                    Distance matrix (angstroms):
                    1          2          3          4          5
     1  O    0.000000
     2  H    0.977802   0.000000
     3  H    0.977392   1.587244   0.000000
     4  O    3.436585   2.845099   3.110005   0.000000
     5  H    4.226380   3.612004   3.898974   1.014377   0.000000
     6  H    3.586536   3.224647   3.024444   0.983480   1.632111
                    6
     6  H    0.000000
 Stoichiometry    H4O2
 Framework group  C1[X(H4O2)]
 Deg. of freedom    12
 Full point group                 C1      NOp   1
 Largest Abelian subgroup         C1      NOp   1
 Largest concise Abelian subgroup C1      NOp   1
                         Standard orientation:                         
 ---------------------------------------------------------------------
 Center     Atomic      Atomic             Coordinates (Angstroms)
 Number     Number       Type             X           Y           Z
 ---------------------------------------------------------------------
      1          8           0        1.812499   -0.024310    0.009590
      2          1           0        1.144192   -0.706172   -0.201426
      3          1           0        1.348798    0.804565    0.240334
      4          8           0       -1.623141   -0.060284   -0.062563
      5          1           0       -2.364619   -0.336698    0.572075
      6          1           0       -1.643236    0.915060   -0.187198
 ---------------------------------------------------------------------
 Rotational constants (GHZ):    188.5119884      4.7383245      4.6660602
 Standard basis: SDDAll (6D, 10F)
 There are    30 symmetry adapted cartesian basis functions of A   symmetry.
 There are    30 symmetry adapted basis functions of A   symmetry.
    30 basis functions,    54 primitive gaussians,    30 cartesian basis functions
     8 alpha electrons        8 beta electrons
       nuclear repulsion energy        23.4498504420 Hartrees.
 NAtoms=    6 NActive=    6 NUniq=    6 SFac= 1.00D+00 NAtFMM=   60 NAOKFM=F Big=F
 Integral buffers will be    131072 words long.
 Raffenetti 2 integral format.
 Two-electron integral symmetry is turned on.
 One-electron integrals computed using PRISM.
   1 Symmetry operations used in ECPInt.
 ECPInt:  NShTT=     171 NPrTT=     619 LenC2=     172 LenP2D=     553.
 LDataN:  DoStor=T MaxTD1= 4 Len=   56
 NBasis=    30 RedAO= T EigKep=  5.32D-02  NBF=    30
 NBsUse=    30 1.00D-06 EigRej= -1.00D+00 NBFU=    30
 Initial guess from the checkpoint file:  "/tmp/Gau-8023.chk"
 B after Tr=     0.000000    0.000000    0.000000
         Rot=    0.999530   -0.030617   -0.001415   -0.000612 Ang=  -3.51 deg.
 ExpMin= 7.02D-02 ExpMax= 4.71D+01 ExpMxC= 4.71D+01 IAcc=2 IRadAn=         4 AccDes= 0.00D+00
 Harris functional with IExCor= 1009 and IRadAn=       4 diagonalized for initial guess.
 HarFok:  IExCor= 1009 AccDes= 0.00D+00 IRadAn=         4 IDoV= 1 UseB2=F ITyADJ=14
 ICtDFT=  3500011 ScaDFX=  1.000000  1.000000  1.000000  1.000000
 FoFCou: FMM=F IPFlag=           0 FMFlag=      100000 FMFlg1=           0
         NFxFlg=           0 DoJE=T BraDBF=F KetDBF=T FulRan=T
         wScrn=  0.000000 ICntrl=     500 IOpCl=  0 I1Cent=   200000004 NGrid=           0
         NMat0=    1 NMatS0=      1 NMatT0=    0 NMatD0=    1 NMtDS0=    0 NMtDT0=    0
 Petite list used in FoFCou.
 Keep R1 ints in memory in canonical form, NReq=1237769.
 Requested convergence on RMS density matrix=1.00D-08 within 512 cycles.
 Requested convergence on MAX density matrix=1.00D-06.
 Requested convergence on             energy=1.00D-06.
 No special actions if energy rises.
 Integral accuracy reduced to 1.0D-05 until final iterations.
 Initial convergence to 1.0D-05 achieved.  Increase integral accuracy.
 SCF Done:  E(RPBE1PBE) =  -34.4016446601     A.U. after   12 cycles
            NFock= 12  Conv=0.34D-08     -V/T= 2.2744
   1 Symmetry operations used in ECPInt.
 ECPInt:  NShTT=     171 NPrTT=     619 LenC2=     172 LenP2D=     553.
 LDataN:  DoStor=T MaxTD1= 5 Len=  102
 Calling FoFJK, ICntrl=      2127 FMM=F ISym2X=0 I1Cent= 0 IOpClX= 0 NMat=1 NMatS=1 NMatT=0.
 ***** Axes restored to original set *****
 -------------------------------------------------------------------
 Center     Atomic                   Forces (Hartrees/Bohr)
 Number     Number              X              Y              Z
 -------------------------------------------------------------------
      1        8          -0.008139787   -0.000383107   -0.004373172
      2        1           0.003588064   -0.000689764   -0.002086980
      3        1           0.002848965    0.001498154    0.006248254
      4        8          -0.017040894    0.020285038   -0.017979474
      5        1           0.022634036   -0.025977326    0.010052053
      6        1          -0.003890384    0.005267005    0.008139320
 -------------------------------------------------------------------
 Cartesian Forces:  Max     0.025977326 RMS     0.011960725

 GradGradGradGradGradGradGradGradGradGradGradGradGradGradGradGradGradGrad
 Berny optimization.
 Search for a local minimum.
 Step number   3 out of a maximum of  100
 All quantities printed in internal units (Hartrees-Bohrs-Radians)
 Update second derivatives using D2CorN and points    2    3
 DE= -4.29D-04 DEPred=-2.80D-03 R= 1.53D-01
 Trust test= 1.53D-01 RLast= 5.24D-01 DXMaxT set to 5.05D-01
 The second derivative matrix:
                          X1        Y1        Z1        X2        Y2
           X1           0.50074
           Y1          -0.02485   0.02915
           Z1          -0.03843   0.12412   0.58392
           X2          -0.38824   0.05735   0.20635   0.36629
           Y2           0.04823  -0.01129  -0.03857  -0.05576   0.01224
           Z2           0.16383  -0.03971  -0.15950  -0.20134   0.04329
           X3          -0.11500  -0.03287  -0.17093   0.02386   0.00663
           Y3          -0.02189  -0.01800  -0.08397  -0.00307  -0.00019
           Z3          -0.12531  -0.08501  -0.42481  -0.00524  -0.00449
           X4          -0.00152  -0.00214   0.00307  -0.00807   0.00526
           Y4           0.00537  -0.00518   0.00065   0.00575  -0.00053
           Z4          -0.00708  -0.00095   0.00010  -0.00354   0.00342
           X5           0.00759   0.00104   0.00159   0.00549  -0.00371
           Y5          -0.00682   0.00247   0.00071  -0.00852   0.00363
           Z5           0.00571  -0.00110   0.00274  -0.00045   0.00025
           X6          -0.00356   0.00146  -0.00166   0.00067  -0.00066
           Y6          -0.00004   0.00285  -0.00295   0.00424  -0.00386
           Z6           0.00128   0.00264  -0.00244   0.00422  -0.00389
                          Z2        X3        Y3        Z3        X4
           Z2           0.17063
           X3           0.03618   0.09220
           Y3          -0.00282   0.02565   0.01800
           Z3          -0.01116   0.13488   0.08709   0.43640
           X4           0.00001  -0.00082   0.00207  -0.00501   0.35574
           Y4           0.00261   0.00206   0.00098   0.00193  -0.29233
           Z4          -0.00224   0.00092   0.00255   0.00068   0.08072
           X5           0.00289  -0.00060  -0.00284  -0.00161  -0.27225
           Y5          -0.00263  -0.00147   0.00101  -0.00306   0.19050
           Z5           0.00246  -0.00086  -0.00084  -0.00389  -0.17163
           X6          -0.00158   0.00035   0.00008   0.00229  -0.07308
           Y6          -0.00074   0.00000  -0.00179   0.00354   0.09663
           Z6          -0.00020  -0.00020  -0.00201   0.00278   0.09284
                          Y4        Z4        X5        Y5        Z5
           Y4           0.33699
           Z4           0.11208   0.44849
           X5           0.18737  -0.13826   0.25829
           Y5          -0.15394   0.08018  -0.18825   0.16229
           Z5           0.10339  -0.13805   0.13812  -0.08319   0.11687
           X6           0.09178   0.06724   0.00148   0.01456   0.02911
           Y6          -0.17832  -0.19728   0.00639  -0.01547  -0.01852
           Z6          -0.22067  -0.30898  -0.00273   0.00799   0.01987
                          X6        Y6        Z6
           X6           0.07412
           Y6          -0.10722   0.19659
           Z6          -0.09541   0.21595   0.28898
 ITU=  0  1  0
     Eigenvalues ---   -0.00304   0.00000   0.00000   0.00000   0.01355
     Eigenvalues ---    0.02061   0.14247   0.14493   0.81093   0.88150
     Eigenvalues ---    0.95422   1.01558
 RFO step:  Lambda=-7.35272276D-03 EMin=-3.03580868D-03
 Quartic linear search produced a step of -0.39266.
 Maximum step size (   0.505) exceeded in Quadratic search.
    -- Step size scaled by   0.500
 TrRot=  0.011600  0.006954 -0.002183  1.771493  0.005996 -1.778066
 Variable       Old X    -DE/DX   Delta X   Delta X   Delta X     New X
                                 (Linear)    (Quad)   (Total)
    X1        4.31121  -0.00814   0.05741  -0.18869  -0.12557   4.18564
    Y1        0.15485  -0.00038  -0.03091   0.02983   0.01189   0.16674
    Z1        5.73703  -0.00437   0.00982  -0.04901  -0.03723   5.69981
    X2        2.74092   0.00359   0.06430  -0.23106  -0.16052   2.58040
    Y2        0.50711  -0.00069  -0.01776  -0.10111  -0.09022   0.41689
    Z2        6.64498  -0.00209   0.02640  -0.09764  -0.07264   6.57234
    X3        3.90605   0.00285   0.01423  -0.08334  -0.06323   3.84282
    Y3       -0.15934   0.00150  -0.00260   0.01651   0.01860  -0.14074
    Z3        3.96262   0.00625   0.01144  -0.06966  -0.05489   3.90773
    X4       -1.93497  -0.01704  -0.01838   0.22444   0.21729  -1.71769
    Y4        0.48987   0.02029   0.08915   0.08676   0.21775   0.70762
    Z4        3.99129  -0.01798  -0.01838   0.03471   0.00803   3.99932
    X5       -3.15867   0.02263  -0.11892   0.10616   0.00575  -3.15292
    Y5        1.88075  -0.02598  -0.07057  -0.13348  -0.15571   1.72505
    Z5        3.49886   0.01005  -0.05481   0.06464  -0.00617   3.49269
    X6       -1.60711  -0.00389   0.00136   0.12066   0.12628  -1.48083
    Y6       -0.59911   0.00527   0.03268  -0.06751  -0.00231  -0.60142
    Z6        2.52137   0.00814   0.02554   0.13769   0.16289   2.68426
         Item               Value     Threshold  Converged?
 Maximum Force            0.025977     0.000450     NO 
 RMS     Force            0.011961     0.000300     NO 
 Maximum Displacement     0.217750     0.001800     NO 
 RMS     Displacement     0.111884     0.001200     NO 
 Predicted change in Energy=-5.205633D-03
 GradGradGradGradGradGradGradGradGradGradGradGradGradGradGradGradGradGrad

                          Input orientation:                          
 ---------------------------------------------------------------------
 Center     Atomic      Atomic             Coordinates (Angstroms)
 Number     Number       Type             X           Y           Z
 ---------------------------------------------------------------------
      1          8           0        2.214946    0.088235    3.016207
      2          1           0        1.365489    0.220608    3.477931
      3          1           0        2.033533   -0.074477    2.067882
      4          8           0       -0.908961    0.374458    2.116351
      5          1           0       -1.668455    0.912855    1.848251
      6          1           0       -0.783622   -0.318259    1.420448
 ---------------------------------------------------------------------
                    Distance matrix (angstroms):
                    1          2          3          4          5
     1  O    0.000000
     2  H    0.975853   0.000000
     3  H    0.979136   1.587954   0.000000
     4  O    3.263503   2.655314   2.976938   0.000000
     5  H    4.138227   3.512816   3.837679   0.968804   0.000000
     6  H    3.420978   3.023622   2.900855   0.989873   1.575305
                    6
     6  H    0.000000
 Stoichiometry    H4O2
 Framework group  C1[X(H4O2)]
 Deg. of freedom    12
 Full point group                 C1      NOp   1
 Largest Abelian subgroup         C1      NOp   1
 Largest concise Abelian subgroup C1      NOp   1
                         Standard orientation:                         
 ---------------------------------------------------------------------
 Center     Atomic      Atomic             Coordinates (Angstroms)
 Number     Number       Type             X           Y           Z
 ---------------------------------------------------------------------
      1          8           0        1.731046   -0.030273    0.012101
      2          1           0        1.043480   -0.670503   -0.251806
      3          1           0        1.298277    0.818926    0.236332
      4          8           0       -1.532073   -0.066750   -0.022242
      5          1           0       -2.382698   -0.253798    0.402058
      6          1           0       -1.550846    0.881555   -0.305460
 ---------------------------------------------------------------------
 Rotational constants (GHZ):    207.9881014      5.2243759      5.1362639
 Standard basis: SDDAll (6D, 10F)
 There are    30 symmetry adapted cartesian basis functions of A   symmetry.
 There are    30 symmetry adapted basis functions of A   symmetry.
    30 basis functions,    54 primitive gaussians,    30 cartesian basis functions
     8 alpha electrons        8 beta electrons
       nuclear repulsion energy        24.0913950947 Hartrees.
 NAtoms=    6 NActive=    6 NUniq=    6 SFac= 1.00D+00 NAtFMM=   60 NAOKFM=F Big=F
 Integral buffers will be    131072 words long.
 Raffenetti 2 integral format.
 Two-electron integral symmetry is turned on.
 One-electron integrals computed using PRISM.
   1 Symmetry operations used in ECPInt.
 ECPInt:  NShTT=     171 NPrTT=     619 LenC2=     172 LenP2D=     556.
 LDataN:  DoStor=T MaxTD1= 4 Len=   56
 NBasis=    30 RedAO= T EigKep=  4.50D-02  NBF=    30
 NBsUse=    30 1.00D-06 EigRej= -1.00D+00 NBFU=    30
 Initial guess from the checkpoint file:  "/tmp/Gau-8023.chk"
 B after Tr=     0.000000    0.000000    0.000000
         Rot=    0.999828    0.018469    0.001041    0.001511 Ang=   2.13 deg.
 ExpMin= 7.02D-02 ExpMax= 4.71D+01 ExpMxC= 4.71D+01 IAcc=2 IRadAn=         4 AccDes= 0.00D+00
 Harris functional with IExCor= 1009 and IRadAn=       4 diagonalized for initial guess.
 HarFok:  IExCor= 1009 AccDes= 0.00D+00 IRadAn=         4 IDoV= 1 UseB2=F ITyADJ=14
 ICtDFT=  3500011 ScaDFX=  1.000000  1.000000  1.000000  1.000000
 FoFCou: FMM=F IPFlag=           0 FMFlag=      100000 FMFlg1=           0
         NFxFlg=           0 DoJE=T BraDBF=F KetDBF=T FulRan=T
         wScrn=  0.000000 ICntrl=     500 IOpCl=  0 I1Cent=   200000004 NGrid=           0
         NMat0=    1 NMatS0=      1 NMatT0=    0 NMatD0=    1 NMtDS0=    0 NMtDT0=    0
 Petite list used in FoFCou.
 Keep R1 ints in memory in canonical form, NReq=1237769.
 Requested convergence on RMS density matrix=1.00D-08 within 512 cycles.
 Requested convergence on MAX density matrix=1.00D-06.
 Requested convergence on             energy=1.00D-06.
 No special actions if energy rises.
 Integral accuracy reduced to 1.0D-05 until final iterations.
 Initial convergence to 1.0D-05 achieved.  Increase integral accuracy.
 SCF Done:  E(RPBE1PBE) =  -34.4033985735     A.U. after   11 cycles
            NFock= 11  Conv=0.39D-08     -V/T= 2.2707
   1 Symmetry operations used in ECPInt.
 ECPInt:  NShTT=     171 NPrTT=     619 LenC2=     172 LenP2D=     556.
 LDataN:  DoStor=T MaxTD1= 5 Len=  102
 Calling FoFJK, ICntrl=      2127 FMM=F ISym2X=0 I1Cent= 0 IOpClX= 0 NMat=1 NMatS=1 NMatT=0.
 ***** Axes restored to original set *****
 -------------------------------------------------------------------
 Center     Atomic                   Forces (Hartrees/Bohr)
 Number     Number              X              Y              Z
 -------------------------------------------------------------------
      1        8          -0.006129306   -0.002912122   -0.006596107
      2        1           0.001692999    0.001297385   -0.001868376
      3        1           0.002879441    0.002853135    0.008090613
      4        8           0.003830934   -0.015059056   -0.017157558
      5        1          -0.002355143    0.005763606    0.004429537
      6        1           0.000081074    0.008057052    0.013101891
 -------------------------------------------------------------------
 Cartesian Forces:  Max     0.017157558 RMS     0.007491807

 GradGradGradGradGradGradGradGradGradGradGradGradGradGradGradGradGradGrad
 Berny optimization.
 Search for a local minimum.
 Step number   4 out of a maximum of  100
 All quantities printed in internal units (Hartrees-Bohrs-Radians)
 Update second derivatives using D2CorN and points    3    4
 DE= -1.75D-03 DEPred=-5.21D-03 R= 3.37D-01
 Trust test= 3.37D-01 RLast= 4.75D-01 DXMaxT set to 5.05D-01
 The second derivative matrix:
                          X1        Y1        Z1        X2        Y2
           X1           0.50168
           Y1          -0.02600   0.02936
           Z1          -0.03914   0.12388   0.58341
           X2          -0.38736   0.05592   0.20535   0.36702
           Y2           0.04899  -0.01212  -0.03906  -0.05501   0.01285
           Z2           0.16414  -0.04035  -0.15998  -0.20112   0.04356
           X3          -0.11445  -0.03345  -0.17126   0.02442   0.00707
           Y3          -0.02144  -0.01789  -0.08369  -0.00245   0.00012
           Z3          -0.12395  -0.08560  -0.42484  -0.00364  -0.00348
           X4           0.00098  -0.00055   0.00553  -0.00433   0.00692
           Y4          -0.00274  -0.00259  -0.00003  -0.00407  -0.00650
           Z4          -0.00884  -0.00072  -0.00036  -0.00576   0.00216
           X5           0.00298   0.00152   0.00027  -0.00039  -0.00702
           Y5          -0.00067   0.00058   0.00131  -0.00105   0.00815
           Z5           0.00511  -0.00109   0.00251  -0.00124  -0.00018
           X6          -0.00384   0.00255  -0.00074   0.00063  -0.00095
           Y6           0.00185   0.00265  -0.00241   0.00665  -0.00250
           Z6           0.00268   0.00387  -0.00074   0.00641  -0.00299
                          Z2        X3        Y3        Z3        X4
           Z2           0.17068
           X3           0.03639   0.09253
           Y3          -0.00253   0.02586   0.01784
           Z3          -0.01047   0.13560   0.08715   0.43741
           X4           0.00186   0.00029   0.00068  -0.00555   0.34426
           Y4          -0.00167  -0.00216   0.00116  -0.00325  -0.28547
           Z4          -0.00324   0.00003   0.00277  -0.00015   0.08349
           X5           0.00024  -0.00292  -0.00219  -0.00367  -0.26447
           Y5           0.00063   0.00173   0.00083   0.00080   0.18499
           Z5           0.00210  -0.00116  -0.00072  -0.00410  -0.17039
           X6          -0.00150   0.00013  -0.00047   0.00121  -0.07675
           Y6           0.00035   0.00095  -0.00206   0.00438   0.09343
           Z6           0.00092   0.00040  -0.00298   0.00216   0.08506
                          Y4        Z4        X5        Y5        Z5
           Y4           0.36227
           Z4           0.11554   0.44871
           X5           0.19566  -0.13789   0.25871
           Y5          -0.17262   0.07769  -0.19420   0.17609
           Z5           0.10412  -0.13809   0.13792  -0.08369   0.11681
           X6           0.09877   0.06896   0.00609   0.00920   0.02975
           Y6          -0.18172  -0.19743   0.00622  -0.01303  -0.01844
           Z6          -0.21471  -0.30687   0.00313   0.00326   0.02078
                          X6        Y6        Z6
           X6           0.07373
           Y6          -0.10911   0.19666
           Z6          -0.09768   0.21355   0.28376
 ITU=  0  0  1  0
     Eigenvalues ---   -0.00092   0.00000   0.00000   0.00669   0.01363
     Eigenvalues ---    0.02801   0.14382   0.14855   0.81486   0.88336
     Eigenvalues ---    0.95517   1.02470
 RFO step:  Lambda=-3.30726578D-03 EMin=-9.16547319D-04
 Quartic linear search produced a step of -0.26057.
 Maximum step size (   0.505) exceeded in Quadratic search.
    -- Step size scaled by   0.503
 TrRot= -0.009812  0.013103  0.005147  1.438795 -0.012079 -1.448246
 Variable       Old X    -DE/DX   Delta X   Delta X   Delta X     New X
                                 (Linear)    (Quad)   (Total)
    X1        4.18564  -0.00613   0.03272  -0.08747  -0.07373   4.11191
    Y1        0.16674  -0.00291  -0.00310  -0.15290  -0.25033  -0.08359
    Z1        5.69981  -0.00660   0.00970  -0.00113   0.01953   5.71934
    X2        2.58040   0.00169   0.04183  -0.08369  -0.05489   2.52551
    Y2        0.41689   0.00130   0.02351   0.31971   0.25481   0.67170
    Z2        6.57234  -0.00187   0.01893  -0.12582  -0.08935   6.48298
    X3        3.84282   0.00288   0.01647  -0.05060  -0.05059   3.79223
    Y3       -0.14074   0.00285  -0.00485   0.11016   0.03609  -0.10465
    Z3        3.90773   0.00809   0.01430  -0.05505  -0.03069   3.87704
    X4       -1.71769   0.00383  -0.05662   0.03451  -0.03249  -1.75018
    Y4        0.70762  -0.01506  -0.05674  -0.03852  -0.11419   0.59343
    Z4        3.99932  -0.01716  -0.00209   0.04663   0.05416   4.05349
    X5       -3.15292  -0.00236  -0.00150   0.02860   0.02783  -3.12509
    Y5        1.72505   0.00576   0.04057  -0.07123  -0.03039   1.69465
    Z5        3.49269   0.00443   0.00161   0.03131   0.05351   3.54620
    X6       -1.48083   0.00008  -0.03290   0.23542   0.18387  -1.29696
    Y6       -0.60142   0.00806   0.00060   0.11024   0.10401  -0.49741
    Z6        2.68426   0.01310  -0.04244   0.03810  -0.00716   2.67710
         Item               Value     Threshold  Converged?
 Maximum Force            0.017158     0.000450     NO 
 RMS     Force            0.007492     0.000300     NO 
 Maximum Displacement     0.254807     0.001800     NO 
 RMS     Displacement     0.109411     0.001200     NO 
 Predicted change in Energy=-2.258631D-03
 GradGradGradGradGradGradGradGradGradGradGradGradGradGradGradGradGradGrad

                          Input orientation:                          
 ---------------------------------------------------------------------
 Center     Atomic      Atomic             Coordinates (Angstroms)
 Number     Number       Type             X           Y           Z
 ---------------------------------------------------------------------
      1          8           0        2.175931   -0.044232    3.026542
      2          1           0        1.336441    0.355446    3.430647
      3          1           0        2.006761   -0.055377    2.051644
      4          8           0       -0.926154    0.314031    2.145013
      5          1           0       -1.653728    0.896772    1.876566
      6          1           0       -0.686321   -0.263220    1.416659
 ---------------------------------------------------------------------
                    Distance matrix (angstroms):
                    1          2          3          4          5
     1  O    0.000000
     2  H    1.013798   0.000000
     3  H    0.989530   1.587374   0.000000
     4  O    3.244746   2.602673   2.957562   0.000000
     5  H    4.107824   3.413108   3.786346   0.970059   0.000000
     6  H    3.291226   2.920695   2.774725   0.959811   1.578914
                    6
     6  H    0.000000
 Stoichiometry    H4O2
 Framework group  C1[X(H4O2)]
 Deg. of freedom    12
 Full point group                 C1      NOp   1
 Largest Abelian subgroup         C1      NOp   1
 Largest concise Abelian subgroup C1      NOp   1
                         Standard orientation:                         
 ---------------------------------------------------------------------
 Center     Atomic      Atomic             Coordinates (Angstroms)
 Number     Number       Type             X           Y           Z
 ---------------------------------------------------------------------
      1          8           0        1.717976   -0.025721   -0.019299
      2          1           0        0.988894   -0.730112   -0.011575
      3          1           0        1.280658    0.794644    0.319706
      4          8           0       -1.526465   -0.062436   -0.044498
      5          1           0       -2.361015   -0.237327    0.418053
      6          1           0       -1.440623    0.878055   -0.215803
 ---------------------------------------------------------------------
 Rotational constants (GHZ):    208.7884214      5.3130448      5.2192618
 Standard basis: SDDAll (6D, 10F)
 There are    30 symmetry adapted cartesian basis functions of A   symmetry.
 There are    30 symmetry adapted basis functions of A   symmetry.
    30 basis functions,    54 primitive gaussians,    30 cartesian basis functions
     8 alpha electrons        8 beta electrons
       nuclear repulsion energy        24.1590430917 Hartrees.
 NAtoms=    6 NActive=    6 NUniq=    6 SFac= 1.00D+00 NAtFMM=   60 NAOKFM=F Big=F
 Integral buffers will be    131072 words long.
 Raffenetti 2 integral format.
 Two-electron integral symmetry is turned on.
 One-electron integrals computed using PRISM.
   1 Symmetry operations used in ECPInt.
 ECPInt:  NShTT=     171 NPrTT=     619 LenC2=     172 LenP2D=     556.
 LDataN:  DoStor=T MaxTD1= 4 Len=   56
 NBasis=    30 RedAO= T EigKep=  4.69D-02  NBF=    30
 NBsUse=    30 1.00D-06 EigRej= -1.00D+00 NBFU=    30
 Initial guess from the checkpoint file:  "/tmp/Gau-8023.chk"
 B after Tr=     0.000000    0.000000    0.000000
         Rot=    0.999993    0.003208    0.000350    0.002101 Ang=   0.44 deg.
 ExpMin= 7.02D-02 ExpMax= 4.71D+01 ExpMxC= 4.71D+01 IAcc=2 IRadAn=         4 AccDes= 0.00D+00
 Harris functional with IExCor= 1009 and IRadAn=       4 diagonalized for initial guess.
 HarFok:  IExCor= 1009 AccDes= 0.00D+00 IRadAn=         4 IDoV= 1 UseB2=F ITyADJ=14
 ICtDFT=  3500011 ScaDFX=  1.000000  1.000000  1.000000  1.000000
 FoFCou: FMM=F IPFlag=           0 FMFlag=      100000 FMFlg1=           0
         NFxFlg=           0 DoJE=T BraDBF=F KetDBF=T FulRan=T
         wScrn=  0.000000 ICntrl=     500 IOpCl=  0 I1Cent=   200000004 NGrid=           0
         NMat0=    1 NMatS0=      1 NMatT0=    0 NMatD0=    1 NMtDS0=    0 NMtDT0=    0
 Petite list used in FoFCou.
 Keep R1 ints in memory in canonical form, NReq=1237769.
 Requested convergence on RMS density matrix=1.00D-08 within 512 cycles.
 Requested convergence on MAX density matrix=1.00D-06.
 Requested convergence on             energy=1.00D-06.
 No special actions if energy rises.
 Integral accuracy reduced to 1.0D-05 until final iterations.
 Initial convergence to 1.0D-05 achieved.  Increase integral accuracy.
 SCF Done:  E(RPBE1PBE) =  -34.4017959553     A.U. after   12 cycles
            NFock= 12  Conv=0.13D-08     -V/T= 2.2725
   1 Symmetry operations used in ECPInt.
 ECPInt:  NShTT=     171 NPrTT=     619 LenC2=     172 LenP2D=     556.
 LDataN:  DoStor=T MaxTD1= 5 Len=  102
 Calling FoFJK, ICntrl=      2127 FMM=F ISym2X=0 I1Cent= 0 IOpClX= 0 NMat=1 NMatS=1 NMatT=0.
 ***** Axes restored to original set *****
 -------------------------------------------------------------------
 Center     Atomic                   Forces (Hartrees/Bohr)
 Number     Number              X              Y              Z
 -------------------------------------------------------------------
      1        8          -0.034907807    0.015216885   -0.005093830
      2        1           0.025592595   -0.013737959   -0.008667331
      3        1           0.007580928   -0.001309959    0.013457328
      4        8           0.000421433    0.007956542    0.004267806
      5        1          -0.000701607    0.001174600    0.003055689
      6        1           0.002014456   -0.009300109   -0.007019662
 -------------------------------------------------------------------
 Cartesian Forces:  Max     0.034907807 RMS     0.012622533

 GradGradGradGradGradGradGradGradGradGradGradGradGradGradGradGradGradGrad
 Berny optimization.
 Search for a local minimum.
 Step number   5 out of a maximum of  100
 All quantities printed in internal units (Hartrees-Bohrs-Radians)
 Update second derivatives using D2CorN and points    3    5    4
 DE=  1.60D-03 DEPred=-2.26D-03 R=-7.10D-01
 Trust test=-7.10D-01 RLast= 4.64D-01 DXMaxT set to 2.52D-01
 The second derivative matrix:
                          X1        Y1        Z1        X2        Y2
           X1           0.49027
           Y1          -0.04219   0.04938
           Z1          -0.03897   0.12077   0.58343
           X2          -0.38761   0.07293   0.20281   0.37268
           Y2           0.06527  -0.03084  -0.03658  -0.07298   0.02944
           Z2           0.15599  -0.04090  -0.16087  -0.19702   0.04429
           X3          -0.11705  -0.02714  -0.17237   0.02823   0.00068
           Y3          -0.01893  -0.02111  -0.08304  -0.00459   0.00342
           Z3          -0.12394  -0.07779  -0.42578   0.00005  -0.01124
           X4           0.00086  -0.00038   0.00707   0.00116   0.00959
           Y4          -0.01144   0.01086  -0.00153   0.00177  -0.02000
           Z4          -0.00346   0.00457  -0.00066  -0.00853  -0.00412
           X5           0.00286   0.00089  -0.00015  -0.00494  -0.00798
           Y5          -0.00084   0.00144   0.00096   0.00323   0.00811
           Z5           0.00889  -0.00276   0.00282  -0.00488   0.00088
           X6           0.01067  -0.00413   0.00161  -0.00952   0.00542
           Y6           0.00813  -0.00972  -0.00058  -0.00036   0.00987
           Z6           0.00150  -0.00390   0.00106   0.00758   0.00677
                          Z2        X3        Y3        Z3        X4
           Z2           0.16765
           X3           0.03707   0.09430
           Y3          -0.00240   0.02501   0.01827
           Z3          -0.00839   0.13770   0.08602   0.43942
           X4           0.00256   0.00187  -0.00023  -0.00447   0.33536
           Y4          -0.00189   0.00015  -0.00094  -0.00109  -0.28455
           Z4          -0.00026   0.00011   0.00221  -0.00112   0.08611
           X5          -0.00055  -0.00452  -0.00170  -0.00541  -0.26042
           Y5           0.00133   0.00341   0.00062   0.00313   0.18402
           Z5           0.00288  -0.00221  -0.00033  -0.00564  -0.16926
           X6           0.00195  -0.00283   0.00044  -0.00393  -0.07883
           Y6          -0.00042  -0.00211  -0.00026   0.00095   0.09154
           Z6          -0.00101  -0.00031  -0.00246   0.00151   0.07798
                          Y4        Z4        X5        Y5        Z5
           Y4           0.37926
           Z4           0.11883   0.44565
           X5           0.19898  -0.13857   0.25887
           Y5          -0.17886   0.07729  -0.19714   0.18171
           Z5           0.10311  -0.13978   0.13772  -0.08404   0.11658
           X6           0.09509   0.06434   0.00816   0.00732   0.02974
           Y6          -0.19032  -0.19879   0.00694  -0.01303  -0.01685
           Z6          -0.21744  -0.30383   0.00696   0.00133   0.02313
                          X6        Y6        Z6
           X6           0.07236
           Y6          -0.10414   0.20346
           Z6          -0.09371   0.21569   0.27914
 ITU= -1  0  0  1  0
 Energy rises -- skip Quadratic search.
 Quartic linear search produced a step of -0.62955.
 TrRot=  0.000000  0.000000  0.000000  0.000000  0.000000  0.000000
 Variable       Old X    -DE/DX   Delta X   Delta X   Delta X     New X
                                 (Linear)    (Quad)   (Total)
    X1        4.11191  -0.03491   0.04641   0.00000   0.04641   4.15833
    Y1       -0.08359   0.01522   0.15759   0.00000   0.15759   0.07401
    Z1        5.71934  -0.00509  -0.01229   0.00000  -0.01229   5.70704
    X2        2.52551   0.02559   0.03456   0.00000   0.03456   2.56006
    Y2        0.67170  -0.01374  -0.16041   0.00000  -0.16041   0.51128
    Z2        6.48298  -0.00867   0.05625   0.00000   0.05625   6.53924
    X3        3.79223   0.00758   0.03185   0.00000   0.03185   3.82408
    Y3       -0.10465  -0.00131  -0.02272   0.00000  -0.02272  -0.12737
    Z3        3.87704   0.01346   0.01932   0.00000   0.01932   3.89636
    X4       -1.75018   0.00042   0.02045   0.00000   0.02045  -1.72972
    Y4        0.59343   0.00796   0.07189   0.00000   0.07189   0.66532
    Z4        4.05349   0.00427  -0.03410   0.00000  -0.03410   4.01939
    X5       -3.12509  -0.00070  -0.01752   0.00000  -0.01752  -3.14261
    Y5        1.69465   0.00117   0.01913   0.00000   0.01913   1.71379
    Z5        3.54620   0.00306  -0.03369   0.00000  -0.03369   3.51251
    X6       -1.29696   0.00201  -0.11576   0.00000  -0.11576  -1.41271
    Y6       -0.49741  -0.00930  -0.06548   0.00000  -0.06548  -0.56289
    Z6        2.67710  -0.00702   0.00451   0.00000   0.00451   2.68160
         Item               Value     Threshold  Converged?
 Maximum Force            0.034908     0.000450     NO 
 RMS     Force            0.012623     0.000300     NO 
 Maximum Displacement     0.160413     0.001800     NO 
 RMS     Displacement     0.068879     0.001200     NO 
 Predicted change in Energy=-1.093855D-03
 GradGradGradGradGradGradGradGradGradGradGradGradGradGradGradGradGradGrad

                          Input orientation:                          
 ---------------------------------------------------------------------
 Center     Atomic      Atomic             Coordinates (Angstroms)
 Number     Number       Type             X           Y           Z
 ---------------------------------------------------------------------
      1          8           0        2.200492    0.039162    3.020036
      2          1           0        1.354728    0.270559    3.460414
      3          1           0        2.023615   -0.067401    2.061866
      4          8           0       -0.915330    0.352073    2.126969
      5          1           0       -1.662999    0.906897    1.858740
      6          1           0       -0.747577   -0.297869    1.419044
 ---------------------------------------------------------------------
                    Distance matrix (angstroms):
                    1          2          3          4          5
     1  O    0.000000
     2  H    0.981222   0.000000
     3  H    0.980168   1.586683   0.000000
     4  O    3.256352   2.633986   2.969444   0.000000
     5  H    4.126517   3.475192   3.818592   0.968910   0.000000
     6  H    3.371628   2.984960   2.854092   0.975563   1.575688
                    6
     6  H    0.000000
 Stoichiometry    H4O2
 Framework group  C1[X(H4O2)]
 Deg. of freedom    12
 Full point group                 C1      NOp   1
 Largest Abelian subgroup         C1      NOp   1
 Largest concise Abelian subgroup C1      NOp   1
                         Standard orientation:                         
 ---------------------------------------------------------------------
 Center     Atomic      Atomic             Coordinates (Angstroms)
 Number     Number       Type             X           Y           Z
 ---------------------------------------------------------------------
      1          8           0        1.725977   -0.028313    0.000569
      2          1           0        1.024241   -0.694755   -0.161350
      3          1           0        1.292167    0.809894    0.265045
      4          8           0       -1.530021   -0.065116   -0.030266
      5          1           0       -2.374496   -0.246803    0.408639
      6          1           0       -1.509558    0.879091   -0.274762
 ---------------------------------------------------------------------
 Rotational constants (GHZ):    210.2146464      5.2588457      5.1675272
 Standard basis: SDDAll (6D, 10F)
 There are    30 symmetry adapted cartesian basis functions of A   symmetry.
 There are    30 symmetry adapted basis functions of A   symmetry.
    30 basis functions,    54 primitive gaussians,    30 cartesian basis functions
     8 alpha electrons        8 beta electrons
       nuclear repulsion energy        24.1655819271 Hartrees.
 NAtoms=    6 NActive=    6 NUniq=    6 SFac= 1.00D+00 NAtFMM=   60 NAOKFM=F Big=F
 Integral buffers will be    131072 words long.
 Raffenetti 2 integral format.
 Two-electron integral symmetry is turned on.
 One-electron integrals computed using PRISM.
   1 Symmetry operations used in ECPInt.
 ECPInt:  NShTT=     171 NPrTT=     619 LenC2=     172 LenP2D=     556.
 LDataN:  DoStor=T MaxTD1= 4 Len=   56
 NBasis=    30 RedAO= T EigKep=  4.55D-02  NBF=    30
 NBsUse=    30 1.00D-06 EigRej= -1.00D+00 NBFU=    30
 Lowest energy guess from the checkpoint file:  "/tmp/Gau-8023.chk"
 B after Tr=     0.000000    0.000000    0.000000
         Rot=    0.999996    0.002559    0.000128    0.000768 Ang=   0.31 deg.
 B after Tr=     0.000000    0.000000    0.000000
         Rot=    0.999999   -0.000756   -0.000228   -0.001333 Ang=  -0.18 deg.
 Keep R1 ints in memory in canonical form, NReq=1237769.
 Requested convergence on RMS density matrix=1.00D-08 within 512 cycles.
 Requested convergence on MAX density matrix=1.00D-06.
 Requested convergence on             energy=1.00D-06.
 No special actions if energy rises.
 Integral accuracy reduced to 1.0D-05 until final iterations.
 Initial convergence to 1.0D-05 achieved.  Increase integral accuracy.
 SCF Done:  E(RPBE1PBE) =  -34.4038781416     A.U. after   10 cycles
            NFock= 10  Conv=0.13D-08     -V/T= 2.2700
   1 Symmetry operations used in ECPInt.
 ECPInt:  NShTT=     171 NPrTT=     619 LenC2=     172 LenP2D=     556.
 LDataN:  DoStor=T MaxTD1= 5 Len=  102
 Calling FoFJK, ICntrl=      2127 FMM=F ISym2X=0 I1Cent= 0 IOpClX= 0 NMat=1 NMatS=1 NMatT=0.
 ***** Axes restored to original set *****
 -------------------------------------------------------------------
 Center     Atomic                   Forces (Hartrees/Bohr)
 Number     Number              X              Y              Z
 -------------------------------------------------------------------
      1        8          -0.011031970    0.000195382   -0.006007185
      2        1           0.005595942   -0.001076086   -0.002919758
      3        1           0.003742441    0.001734414    0.008555577
      4        8           0.003299658   -0.004602183   -0.008002876
      5        1          -0.001891691    0.004050989    0.003866657
      6        1           0.000285620   -0.000302516    0.004507585
 -------------------------------------------------------------------
 Cartesian Forces:  Max     0.011031970 RMS     0.004947410

 GradGradGradGradGradGradGradGradGradGradGradGradGradGradGradGradGradGrad
 Berny optimization.
 Search for a local minimum.
 Step number   6 out of a maximum of  100
 All quantities printed in internal units (Hartrees-Bohrs-Radians)
 Update second derivatives using D2CorN and points    3    4    6
 The second derivative matrix:
                          X1        Y1        Z1        X2        Y2
           X1           0.48904
           Y1          -0.04514   0.04156
           Z1          -0.03963   0.11998   0.58334
           X2          -0.38865   0.07061   0.20207   0.37177
           Y2           0.06792  -0.02308  -0.03612  -0.07104   0.02143
           Z2           0.15504  -0.04338  -0.16143  -0.19777   0.04663
           X3          -0.11726  -0.02790  -0.17277   0.02812   0.00141
           Y3          -0.01850  -0.02023  -0.08282  -0.00422   0.00262
           Z3          -0.12365  -0.07775  -0.42604   0.00043  -0.01116
           X4           0.00228   0.00019   0.00795   0.00290   0.01013
           Y4          -0.01029   0.01538  -0.00177   0.00263  -0.02430
           Z4          -0.00070   0.01187  -0.00076  -0.00620  -0.01120
           X5           0.00196   0.00130  -0.00031  -0.00616  -0.00902
           Y5          -0.00023   0.00045   0.00062   0.00419   0.00946
           Z5           0.00930  -0.00116   0.00293  -0.00466  -0.00084
           X6           0.01263   0.00094   0.00269  -0.00798   0.00061
           Y6           0.00625  -0.01408   0.00011  -0.00216   0.01386
           Z6          -0.00034  -0.00956   0.00197   0.00612   0.01269
                          Z2        X3        Y3        Z3        X4
           Z2           0.16695
           X3           0.03701   0.09450
           Y3          -0.00211   0.02507   0.01816
           Z3          -0.00808   0.13809   0.08595   0.43989
           X4           0.00342   0.00238  -0.00063  -0.00441   0.33164
           Y4          -0.00024   0.00111  -0.00180  -0.00074  -0.28516
           Z4           0.00255   0.00163   0.00113  -0.00027   0.08584
           X5          -0.00110  -0.00509  -0.00156  -0.00597  -0.25878
           Y5           0.00173   0.00409   0.00063   0.00408   0.18372
           Z5           0.00327  -0.00215  -0.00047  -0.00573  -0.16902
           X6           0.00340  -0.00265  -0.00016  -0.00449  -0.08042
           Y6          -0.00263  -0.00378   0.00061  -0.00038   0.09175
           Z6          -0.00326  -0.00180  -0.00168   0.00023   0.07622
                          Y4        Z4        X5        Y5        Z5
           Y4           0.38510
           Z4           0.11965   0.44278
           X5           0.20007  -0.13922   0.25899
           Y5          -0.18015   0.07867  -0.19848   0.18424
           Z5           0.10243  -0.14129   0.13762  -0.08405   0.11624
           X6           0.09165   0.05865   0.00908   0.00670   0.02891
           Y6          -0.19423  -0.20012   0.00768  -0.01462  -0.01591
           Z6          -0.21933  -0.30301   0.00897  -0.00105   0.02458
                          X6        Y6        Z6
           X6           0.06934
           Y6          -0.09974   0.20846
           Z6          -0.08916   0.21893   0.27949
 ITU=  0 -1  0  0  1  0
     Eigenvalues ---   -0.00385   0.00000   0.00043   0.01264   0.01994
     Eigenvalues ---    0.02944   0.14401   0.15236   0.81416   0.89013
     Eigenvalues ---    0.95232   1.02580
 RFO step:  Lambda=-5.25186897D-03 EMin=-3.85178567D-03
 Quartic linear search produced a step of -0.02049.
 Maximum step size (   0.252) exceeded in Quadratic search.
    -- Step size scaled by   0.366
 TrRot=  0.012275 -0.000367 -0.005647 -0.443741 -0.001928  0.442873
 Variable       Old X    -DE/DX   Delta X   Delta X   Delta X     New X
                                 (Linear)    (Quad)   (Total)
    X1        4.15833  -0.01103   0.00056  -0.10137  -0.09836   4.05997
    Y1        0.07401   0.00020   0.00190   0.01195   0.01467   0.08867
    Z1        5.70704  -0.00601  -0.00015  -0.02589  -0.02470   5.68234
    X2        2.56006   0.00560   0.00042  -0.09784  -0.09599   2.46408
    Y2        0.51128  -0.00108  -0.00193   0.02973   0.03066   0.54195
    Z2        6.53924  -0.00292   0.00068  -0.04634  -0.04748   6.49176
    X3        3.82408   0.00374   0.00038  -0.07481  -0.06905   3.75503
    Y3       -0.12737   0.00173  -0.00027  -0.02449  -0.02517  -0.15254
    Z3        3.89636   0.00856   0.00023  -0.01151  -0.01028   3.88608
    X4       -1.72972   0.00330   0.00025   0.12184   0.12793  -1.60179
    Y4        0.66532  -0.00460   0.00087  -0.00094   0.00428   0.66960
    Z4        4.01939  -0.00800  -0.00041   0.00627  -0.00314   4.01625
    X5       -3.14261  -0.00189  -0.00021   0.04956   0.05681  -3.08581
    Y5        1.71379   0.00405   0.00023  -0.01726  -0.01173   1.70206
    Z5        3.51251   0.00387  -0.00041   0.10207   0.08923   3.60174
    X6       -1.41271   0.00029  -0.00140   0.07295   0.07866  -1.33406
    Y6       -0.56289  -0.00030  -0.00079  -0.01495  -0.01272  -0.57561
    Z6        2.68160   0.00451   0.00005   0.00383  -0.00363   2.67798
         Item               Value     Threshold  Converged?
 Maximum Force            0.011032     0.000450     NO 
 RMS     Force            0.004947     0.000300     NO 
 Maximum Displacement     0.127934     0.001800     NO 
 RMS     Displacement     0.058925     0.001200     NO 
 Predicted change in Energy=-1.071291D-03
 GradGradGradGradGradGradGradGradGradGradGradGradGradGradGradGradGradGrad

                          Input orientation:                          
 ---------------------------------------------------------------------
 Center     Atomic      Atomic             Coordinates (Angstroms)
 Number     Number       Type             X           Y           Z
 ---------------------------------------------------------------------
      1          8           0        2.148445    0.046923    3.006967
      2          1           0        1.303933    0.286785    3.435289
      3          1           0        1.987074   -0.080721    2.056427
      4          8           0       -0.847630    0.354340    2.125306
      5          1           0       -1.632938    0.900692    1.905957
      6          1           0       -0.705953   -0.304599    1.417125
 ---------------------------------------------------------------------
                    Distance matrix (angstroms):
                    1          2          3          4          5
     1  O    0.000000
     2  H    0.976829   0.000000
     3  H    0.972553   1.582088   0.000000
     4  O    3.138200   2.519889   2.868723   0.000000
     5  H    4.029888   3.367632   3.753705   0.981490   0.000000
     6  H    3.286146   2.909014   2.776909   0.977646   1.597179
                    6
     6  H    0.000000
 Stoichiometry    H4O2
 Framework group  C1[X(H4O2)]
 Deg. of freedom    12
 Full point group                 C1      NOp   1
 Largest Abelian subgroup         C1      NOp   1
 Largest concise Abelian subgroup C1      NOp   1
                         Standard orientation:                         
 ---------------------------------------------------------------------
 Center     Atomic      Atomic             Coordinates (Angstroms)
 Number     Number       Type             X           Y           Z
 ---------------------------------------------------------------------
      1          8           0        1.668591   -0.030669    0.000151
      2          1           0        0.966257   -0.688439   -0.167954
      3          1           0        1.250435    0.806270    0.265739
      4          8           0       -1.469380   -0.058102   -0.025867
      5          1           0       -2.335495   -0.298676    0.368205
      6          1           0       -1.474884    0.891014   -0.260261
 ---------------------------------------------------------------------
 Rotational constants (GHZ):    211.4541619      5.6454734      5.5363675
 Standard basis: SDDAll (6D, 10F)
 There are    30 symmetry adapted cartesian basis functions of A   symmetry.
 There are    30 symmetry adapted basis functions of A   symmetry.
    30 basis functions,    54 primitive gaussians,    30 cartesian basis functions
     8 alpha electrons        8 beta electrons
       nuclear repulsion energy        24.5253770993 Hartrees.
 NAtoms=    6 NActive=    6 NUniq=    6 SFac= 1.00D+00 NAtFMM=   60 NAOKFM=F Big=F
 Integral buffers will be    131072 words long.
 Raffenetti 2 integral format.
[...]
     Eigenvalues ---    0.00236   0.00518   0.00934   0.03742   0.04475
     Eigenvalues ---    0.19115   0.32094   0.47041   0.79104   0.89927
     Eigenvalues ---    1.04029   1.08074
 RFO step:  Lambda=-1.09201650D-06 EMin= 2.35771856D-03
 Quartic linear search produced a step of -0.57950.
 TrRot= -0.000732 -0.000613  0.000680 -0.312881  0.000237  0.313049
 MatCor failed.
 Variable       Old X    -DE/DX   Delta X   Delta X   Delta X     New X
                                 (Linear)    (Quad)   (Total)
    X1        3.39621   0.00020   0.00098   0.00131   0.00286   3.39906
    Y1        0.00321  -0.00007  -0.00284  -0.00043  -0.00373  -0.00052
    Z1        5.79341  -0.00054  -0.00023  -0.00013  -0.00045   5.79296
    X2        1.76538  -0.00005  -0.00107  -0.00021  -0.00093   1.76446
    Y2        0.16724   0.00003  -0.00503  -0.00416  -0.00986   0.15738
    Z2        4.91117   0.00012   0.00327   0.00155   0.00512   4.91628
    X3        4.81192  -0.00021  -0.00267  -0.00033  -0.00274   4.80918
    Y3        0.37227  -0.00001   0.00696   0.00568   0.01249   0.38476
    Z3        4.69446   0.00031  -0.00091   0.00026  -0.00102   4.69344
    X4       -1.22458   0.00024   0.00087  -0.00050   0.00036  -1.22422
    Y4        0.58620   0.00015  -0.00152  -0.00294  -0.00555   0.58065
    Z4        3.63755   0.00036  -0.00079   0.00240   0.00261   3.64016
    X5       -2.23537  -0.00014   0.00498   0.00366   0.00856  -2.22681
    Y5        1.93523   0.00007   0.00198   0.00353   0.00421   1.93944
    Z5        4.35033  -0.00018  -0.00234  -0.00393  -0.00494   4.34539
    X6       -2.25841  -0.00004  -0.00309  -0.00509  -0.00811  -2.26652
    Y6       -0.77152  -0.00017   0.00045   0.00320   0.00245  -0.76908
    Z6        2.97793  -0.00008   0.00101  -0.00344  -0.00130   2.97663
         Item               Value     Threshold  Converged?
 Maximum Force            0.000537     0.000450     NO 
 RMS     Force            0.000209     0.000300     YES
 Maximum Displacement     0.012486     0.001800     NO 
 RMS     Displacement     0.005466     0.001200     NO 
 Predicted change in Energy=-8.803134D-07
 GradGradGradGradGradGradGradGradGradGradGradGradGradGradGradGradGradGrad

                          Input orientation:                          
 ---------------------------------------------------------------------
 Center     Atomic      Atomic             Coordinates (Angstroms)
 Number     Number       Type             X           Y           Z
 ---------------------------------------------------------------------
      1          8           0        1.798707   -0.000276    3.065503
      2          1           0        0.933711    0.083282    2.601584
      3          1           0        2.544907    0.203604    2.483659
      4          8           0       -0.647829    0.307266    1.926289
      5          1           0       -1.178377    1.026305    2.299481
      6          1           0       -1.199393   -0.406978    1.575164
 ---------------------------------------------------------------------
                    Distance matrix (angstroms):
                    1          2          3          4          5
     1  O    0.000000
     2  H    0.985100   0.000000
     3  H    0.967949   1.619981   0.000000
     4  O    2.716234   1.734203   3.242679   0.000000
     5  H    3.240939   2.332697   3.817539   0.968385   0.000000
     6  H    3.372702   2.417441   3.901019   0.968326   1.606044
                    6
     6  H    0.000000
 Stoichiometry    H4O2
 Framework group  C1[X(H4O2)]
 Deg. of freedom    12
 Full point group                 C1      NOp   1
 Largest Abelian subgroup         C1      NOp   1
 Largest concise Abelian subgroup C1      NOp   1
                         Standard orientation:                         
 ---------------------------------------------------------------------
 Center     Atomic      Atomic             Coordinates (Angstroms)
 Number     Number       Type             X           Y           Z
 ---------------------------------------------------------------------
      1          8           0        1.430981   -0.032471   -0.108937
      2          1           0        0.452704    0.039106   -0.017991
      3          1           0        1.891403    0.217742    0.704899
      4          8           0       -1.279685    0.016212    0.057942
      5          1           0       -1.702975   -0.852207   -0.008723
      6          1           0       -1.851502    0.725428   -0.270226
 ---------------------------------------------------------------------
 Rotational constants (GHZ):    241.3658714      7.2286959      7.1708683
 Standard basis: SDDAll (6D, 10F)
 There are    30 symmetry adapted cartesian basis functions of A   symmetry.
 There are    30 symmetry adapted basis functions of A   symmetry.
    30 basis functions,    54 primitive gaussians,    30 cartesian basis functions
     8 alpha electrons        8 beta electrons
       nuclear repulsion energy        26.1816878157 Hartrees.
 NAtoms=    6 NActive=    6 NUniq=    6 SFac= 1.00D+00 NAtFMM=   60 NAOKFM=F Big=F
 Integral buffers will be    131072 words long.
 Raffenetti 2 integral format.
 Two-electron integral symmetry is turned on.
 One-electron integrals computed using PRISM.
   1 Symmetry operations used in ECPInt.
 ECPInt:  NShTT=     171 NPrTT=     619 LenC2=     172 LenP2D=     564.
 LDataN:  DoStor=T MaxTD1= 4 Len=   56
 NBasis=    30 RedAO= T EigKep=  3.47D-02  NBF=    30
 NBsUse=    30 1.00D-06 EigRej= -1.00D+00 NBFU=    30
 Lowest energy guess from the checkpoint file:  "/tmp/Gau-8023.chk"
 B after Tr=     0.000000    0.000000    0.000000
         Rot=    1.000000    0.000176   -0.000038   -0.000033 Ang=   0.02 deg.
 B after Tr=     0.000000    0.000000    0.000000
         Rot=    0.999977   -0.006723    0.000022   -0.000165 Ang=  -0.77 deg.
 Keep R1 ints in memory in canonical form, NReq=1237769.
 Requested convergence on RMS density matrix=1.00D-08 within 512 cycles.
 Requested convergence on MAX density matrix=1.00D-06.
 Requested convergence on             energy=1.00D-06.
 No special actions if energy rises.
 SCF Done:  E(RPBE1PBE) =  -34.4138740752     A.U. after    8 cycles
            NFock=  8  Conv=0.94D-09     -V/T= 2.2648
   1 Symmetry operations used in ECPInt.
 ECPInt:  NShTT=     171 NPrTT=     619 LenC2=     172 LenP2D=     564.
 LDataN:  DoStor=T MaxTD1= 5 Len=  102
 Calling FoFJK, ICntrl=      2127 FMM=F ISym2X=0 I1Cent= 0 IOpClX= 0 NMat=1 NMatS=1 NMatT=0.
 ***** Axes restored to original set *****
 -------------------------------------------------------------------
 Center     Atomic                   Forces (Hartrees/Bohr)
 Number     Number              X              Y              Z
 -------------------------------------------------------------------
      1        8          -0.000159446   -0.000129215   -0.000286131
      2        1           0.000109072    0.000027090    0.000072405
      3        1          -0.000013598    0.000034594    0.000082878
      4        8           0.000207243   -0.000010129    0.000276424
      5        1          -0.000223533    0.000146698   -0.000129534
      6        1           0.000080262   -0.000069038   -0.000016042
 -------------------------------------------------------------------
 Cartesian Forces:  Max     0.000286131 RMS     0.000143238

 GradGradGradGradGradGradGradGradGradGradGradGradGradGradGradGradGradGrad
 Berny optimization.
 Search for a local minimum.
 Step number  85 out of a maximum of  100
 All quantities printed in internal units (Hartrees-Bohrs-Radians)
 Update second derivatives using D2CorN and points   66   68   70   69   71
                                                         72   73   74   75   77

                                                         76   78   79   80   82

                                                         81   84   83   85
 DE= -9.26D-07 DEPred=-8.80D-07 R= 1.05D+00
 Trust test= 1.05D+00 RLast= 7.49D-03 DXMaxT set to 5.00D-02
 The second derivative matrix:
                          X1        Y1        Z1        X2        Y2
           X1           0.66911
           Y1           0.02721   0.03915
           Z1          -0.09951  -0.02687   0.56291
           X2          -0.39482   0.02065   0.01587   0.48968
           Y2           0.03276  -0.02679  -0.00772  -0.04495   0.03373
           Z2          -0.12725   0.00044  -0.28357   0.07872  -0.00450
           X3          -0.20443  -0.02098   0.12141  -0.11172   0.00178
           Y3          -0.05529  -0.02970   0.04833   0.04214   0.00311
           Z3           0.17551  -0.00588  -0.33520   0.00006   0.00679
           X4          -0.08109  -0.03530  -0.02688  -0.02616   0.01588
           Y4          -0.02243  -0.04271   0.00087   0.00816  -0.01823
           Z4          -0.05988  -0.04796  -0.01872   0.01370   0.00915
           X5           0.00907   0.01171   0.06436  -0.01170  -0.00717
           Y5          -0.05204  -0.00193   0.02519   0.00900   0.00311
           Z5           0.11909   0.02861  -0.00852  -0.07746   0.00199
           X6           0.00327  -0.00355  -0.07847   0.05227   0.00224
           Y6           0.06078   0.06406  -0.01364  -0.01511   0.00067
           Z6          -0.01220   0.05265   0.09543  -0.02153  -0.00778
                          Z2        X3        Y3        Z3        X4
           Z2           0.24670
           X3           0.05947   0.34567
           Y3          -0.01278   0.00078   0.04165
           Z3           0.10686  -0.20061  -0.01104   0.26769
           X4          -0.04643  -0.02940  -0.00205   0.04240   0.59012
           Y4           0.03694   0.02835   0.07478   0.01063  -0.07836
           Z4          -0.00883  -0.02561   0.05533   0.05419   0.09536
           X5           0.00166   0.07069   0.00648  -0.09572  -0.30917
           Y5          -0.02164   0.00194   0.00077   0.00774   0.22313
           Z5           0.00245   0.01426  -0.01219  -0.01627  -0.07533
           X6           0.03533  -0.07033   0.00717   0.08024  -0.14154
           Y6          -0.01054  -0.01576  -0.08424  -0.02347  -0.14581
           Z6          -0.06929   0.02925  -0.06464  -0.08445   0.00028
                          Y4        Z4        X5        Y5        Z5
           Y4           0.58710
           Z4           0.24461   0.19011
           X5           0.21064   0.01787   0.26340
           Y5          -0.29337  -0.09305  -0.22444   0.32293
           Z5          -0.01568  -0.08036   0.05071   0.04498   0.15856
           X6          -0.14738  -0.04079  -0.02435   0.04357  -0.03291
           Y6          -0.29920  -0.17339   0.01956  -0.04099  -0.03440
           Z6          -0.27342  -0.13889  -0.03097   0.03230  -0.04959
                          X6        Y6        Z6
           X6           0.18092
           Y6           0.09612   0.36135
           Z6           0.03575   0.25622   0.24459
 ITU=  0 -1  0 -1  1  1  1  0  0  1  1  1  0  1  0  0  0  0 -1
     Eigenvalues ---    0.00277   0.00496   0.01024   0.03767   0.04506
     Eigenvalues ---    0.18863   0.31991   0.46976   0.79058   0.89963
     Eigenvalues ---    1.03585   1.08089
 RFO step:  Lambda=-7.77075624D-07 EMin= 2.77305825D-03
 Quartic linear search produced a step of  0.90451.
 TrRot=  0.000487  0.000350 -0.000424 -0.000087 -0.000131 -0.000087
 Variable       Old X    -DE/DX   Delta X   Delta X   Delta X     New X
                                 (Linear)    (Quad)   (Total)
    X1        3.39906  -0.00016   0.00106  -0.00063   0.00016   3.39923
    Y1       -0.00052  -0.00013   0.00106  -0.00083  -0.00002  -0.00054
    Z1        5.79296  -0.00029  -0.00004  -0.00013  -0.00015   5.79281
    X2        1.76446   0.00011   0.00083  -0.00027   0.00043   1.76489
    Y2        0.15738   0.00003  -0.00107   0.00173   0.00070   0.15808
    Z2        4.91628   0.00007  -0.00048   0.00068   0.00001   4.91629
    X3        4.80918  -0.00001   0.00169  -0.00082   0.00082   4.80999
    Y3        0.38476   0.00003   0.00044  -0.00074  -0.00080   0.38396
    Z3        4.69344   0.00008   0.00050  -0.00080  -0.00009   4.69334
    X4       -1.22422   0.00021  -0.00104   0.00053  -0.00039  -1.22461
    Y4        0.58065  -0.00001  -0.00264   0.00177  -0.00031   0.58034
    Z4        3.64016   0.00028   0.00359  -0.00124   0.00177   3.64192
    X5       -2.22681  -0.00022  -0.00003  -0.00176  -0.00154  -2.22835
    Y5        1.93944   0.00015   0.00072  -0.00136   0.00010   1.93953
    Z5        4.34539  -0.00013  -0.00082   0.00073  -0.00080   4.34459
    X6       -2.26652   0.00008  -0.00251   0.00307   0.00052  -2.26600
    Y6       -0.76908  -0.00007   0.00150  -0.00192   0.00033  -0.76875
    Z6        2.97663  -0.00002  -0.00275   0.00274  -0.00073   2.97590
         Item               Value     Threshold  Converged?
 Maximum Force            0.000286     0.000450     YES
 RMS     Force            0.000143     0.000300     YES
 Maximum Displacement     0.001766     0.001800     YES
 RMS     Displacement     0.000720     0.001200     YES
 Predicted change in Energy=-3.979570D-07
 Optimization completed.
    -- Stationary point found.
 GradGradGradGradGradGradGradGradGradGradGradGradGradGradGradGradGradGrad

                          Input orientation:                          
 ---------------------------------------------------------------------
 Center     Atomic      Atomic             Coordinates (Angstroms)
 Number     Number       Type             X           Y           Z
 ---------------------------------------------------------------------
      1          8           0        1.798707   -0.000276    3.065503
      2          1           0        0.933711    0.083282    2.601584
      3          1           0        2.544907    0.203604    2.483659
      4          8           0       -0.647829    0.307266    1.926289
      5          1           0       -1.178377    1.026305    2.299481
      6          1           0       -1.199393   -0.406978    1.575164
 ---------------------------------------------------------------------
                    Distance matrix (angstroms):
                    1          2          3          4          5
     1  O    0.000000
     2  H    0.985100   0.000000
     3  H    0.967949   1.619981   0.000000
     4  O    2.716234   1.734203   3.242679   0.000000
     5  H    3.240939   2.332697   3.817539   0.968385   0.000000
     6  H    3.372702   2.417441   3.901019   0.968326   1.606044
                    6
     6  H    0.000000
 Stoichiometry    H4O2
 Framework group  C1[X(H4O2)]
 Deg. of freedom    12
 Full point group                 C1      NOp   1
 Largest Abelian subgroup         C1      NOp   1
 Largest concise Abelian subgroup C1      NOp   1
                         Standard orientation:                         
 ---------------------------------------------------------------------
 Center     Atomic      Atomic             Coordinates (Angstroms)
 Number     Number       Type             X           Y           Z
 ---------------------------------------------------------------------
      1          8           0        1.430981   -0.032471   -0.108937
      2          1           0        0.452704    0.039106   -0.017991
      3          1           0        1.891403    0.217742    0.704899
      4          8           0       -1.279685    0.016212    0.057942
      5          1           0       -1.702975   -0.852207   -0.008723
      6          1           0       -1.851502    0.725428   -0.270226
 ---------------------------------------------------------------------
 Rotational constants (GHZ):    241.3658714      7.2286959      7.1708683

 **********************************************************************

            Population analysis using the SCF density.

 **********************************************************************

 Orbital symmetries:
       Occupied  (A) (A) (A) (A) (A) (A) (A) (A)
       Virtual   (A) (A) (A) (A) (A) (A) (A) (A) (A) (A) (A) (A)
                 (A) (A) (A) (A) (A) (A) (A) (A) (A) (A)
 The electronic state is 1-A.
 Alpha  occ. eigenvalues --   -1.08682  -1.00093  -0.60717  -0.53483  -0.42841
 Alpha  occ. eigenvalues --   -0.36774  -0.33137  -0.28628
 Alpha virt. eigenvalues --    0.02974   0.08720   0.09412   0.11992   0.15377
 Alpha virt. eigenvalues --    0.16391   0.18721   0.23086   0.24478   0.32396
 Alpha virt. eigenvalues --    0.88810   1.01330   1.09571   1.11852   1.14664
 Alpha virt. eigenvalues --    1.17188   1.19469   1.22444   1.26146   1.29526
 Alpha virt. eigenvalues --    2.00869   2.52206
          Condensed to atoms (all electrons):
               1          2          3          4          5          6
     1  O    6.314320   0.276823   0.281120  -0.018183   0.000247   0.000302
     2  H    0.276823   0.282024  -0.023428  -0.000039   0.000497   0.000690
     3  H    0.281120  -0.023428   0.359232   0.001614  -0.000009  -0.000016
     4  O   -0.018183  -0.000039   0.001614   6.311982   0.281282   0.279682
     5  H    0.000247   0.000497  -0.000009   0.281282   0.308059  -0.021568
     6  H    0.000302   0.000690  -0.000016   0.279682  -0.021568   0.306355
 Mulliken charges:
               1
     1  O   -0.854630
     2  H    0.463433
     3  H    0.381488
     4  O   -0.856338
     5  H    0.431492
     6  H    0.434555
 Sum of Mulliken charges =   0.00000
 Mulliken charges with hydrogens summed into heavy atoms:
               1
     1  O   -0.009709
     4  O    0.009709
 Electronic spatial extent (au):  <R**2>=            148.2023
 Charge=              0.0000 electrons
 Dipole moment (field-independent basis, Debye):
    X=             -4.1712    Y=              0.3827    Z=              1.1379  Tot=              4.3405
 Quadrupole moment (field-independent basis, Debye-Ang):
   XX=             -9.1033   YY=            -11.8391   ZZ=            -14.1572
   XY=              1.6207   XZ=              5.8451   YZ=             -0.1477
 Traceless Quadrupole moment (field-independent basis, Debye-Ang):
   XX=              2.5966   YY=             -0.1392   ZZ=             -2.4573
   XY=              1.6207   XZ=              5.8451   YZ=             -0.1477
 Octapole moment (field-independent basis, Debye-Ang**2):
  XXX=            -17.2704  YYY=             -0.1441  ZZZ=              1.1689  XYY=             -7.1083
  XXY=              2.3161  XXZ=              4.6988  XZZ=              0.8372  YZZ=              0.3108
  YYZ=              0.0598  XYZ=              1.6907
 Hexadecapole moment (field-independent basis, Debye-Ang**3):
 XXXX=           -140.2547 YYYY=            -15.0421 ZZZZ=            -16.7969 XXXY=              4.0943
 XXXZ=             22.6803 YYYX=              1.7504 YYYZ=             -0.2935 ZZZX=              5.1253
 ZZZY=              0.0664 XXYY=            -24.7555 XXZZ=            -30.8825 YYZZ=             -5.5783
 XXYZ=             -0.4617 YYXZ=              1.9608 ZZXY=              0.4753
 N-N= 2.618168781574D+01 E-N=-1.345528177880D+02  KE= 2.720884437337D+01
 1\1\GINC-HUMAN\FOpt\RPBE1PBE\SDDAll\H4O2\HUMAN\25-Jul-2019\0\\# PBE1PB
 E/SDDAll scf=(maxcycle=512) opt=(cartesian,maxcycle=512)\\Cellular Aut
 omata job 9\\0,1\O,1.7987070802,-0.0002763033,3.0655032135\H,0.9337107
 56,0.0832818402,2.6015841341\H,2.5449069887,0.2036042031,2.4836589361\
 O,-0.6478285978,0.3072662217,1.9262885669\H,-1.1783767773,1.0263050028
 ,2.2994805452\H,-1.1993925527,-0.4069781503,1.5751641734\\Version=ES64
 L-G09RevD.01\State=1-A\HF=-34.4138741\RMSD=9.369e-10\RMSF=1.432e-04\Di
 pole=-1.3431371,0.2794856,-1.0169078\Quadrupole=4.5493383,-0.7882322,-
 3.7611062,0.6729893,-1.8519657,1.5073841\PG=C01 [X(H4O2)]\\@


 A MATHEMATICIAN IS A MACHINE FOR TURNING COFFEE INTO THEOREMS.
     -- QUOTED BY PAUL ERDOS
 Job cpu time:       0 days  0 hours  8 minutes 21.1 seconds.
 File lengths (MBytes):  RWF=      5 Int=      0 D2E=      0 Chk=      1 Scr=      1
 Normal termination of Gaussian 09 at Thu Jul 25 18:20:56 2019.
