 Entering Gaussian System, Link 0=g09
 Input=Kick0001-opt.com
 Output=Kick0001-opt.log
 Initial command:
 /home/human/g09/l1.exe "/tmp/Gau-28103.inp" -scrdir="/tmp/"
 Entering Link 1 = /home/human/g09/l1.exe PID=     28105.
  
 Copyright (c) 1988,1990,1992,1993,1995,1998,2003,2009,2013,
            Gaussian, Inc.  All Rights Reserved.
  
 This is part of the Gaussian(R) 09 program.  It is based on
 the Gaussian(R) 03 system (copyright 2003, Gaussian, Inc.),
 the Gaussian(R) 98 system (copyright 1998, Gaussian, Inc.),
 the Gaussian(R) 94 system (copyright 1995, Gaussian, Inc.),
 the Gaussian 92(TM) system (copyright 1992, Gaussian, Inc.),
 the Gaussian 90(TM) system (copyright 1990, Gaussian, Inc.),
 the Gaussian 88(TM) system (copyright 1988, Gaussian, Inc.),
 the Gaussian 86(TM) system (copyright 1986, Carnegie Mellon
 University), and the Gaussian 82(TM) system (copyright 1983,
 Carnegie Mellon University). Gaussian is a federally registered
 trademark of Gaussian, Inc.
  
 This software contains proprietary and confidential information,
 including trade secrets, belonging to Gaussian, Inc.
  
 This software is provided under written license and may be
 used, copied, transmitted, or stored only in accord with that
 written license.
  
 The following legend is applicable only to US Government
 contracts under FAR:
  
                    RESTRICTED RIGHTS LEGEND
  
 Use, reproduction and disclosure by the US Government is
 subject to restrictions as set forth in subparagraphs (a)
 and (c) of the Commercial Computer Software - Restricted
 Rights clause in FAR 52.227-19.
  
 Gaussian, Inc.
 340 Quinnipiac St., Bldg. 40, Wallingford CT 06492
  
  
 ---------------------------------------------------------------
 Warning -- This program may not be used in any manner that
 competes with the business of Gaussian, Inc. or will provide
 assistance to any competitor of Gaussian, Inc.  The licensee
 of this program is prohibited from giving any competitor of
 Gaussian, Inc. access to this program.  By using this program,
 the user acknowledges that Gaussian, Inc. is engaged in the
 business of creating and licensing software in the field of
 computational chemistry and represents and warrants to the
 licensee that it is not a competitor of Gaussian, Inc. and that
 it will not use this program in any manner prohibited above.
 ---------------------------------------------------------------
  

 Cite this work as:
 Gaussian 09, Revision D.01,
 M. J. Frisch, G. W. Trucks, H. B. Schlegel, G. E. Scuseria, 
 M. A. Robb, J. R. Cheeseman, G. Scalmani, V. Barone, B. Mennucci, 
 G. A. Petersson, H. Nakatsuji, M. Caricato, X. Li, H. P. Hratchian, 
 A. F. Izmaylov, J. Bloino, G. Zheng, J. L. Sonnenberg, M. Hada, 
 M. Ehara, K. Toyota, R. Fukuda, J. Hasegawa, M. Ishida, T. Nakajima, 
 Y. Honda, O. Kitao, H. Nakai, T. Vreven, J. A. Montgomery, Jr., 
 J. E. Peralta, F. Ogliaro, M. Bearpark, J. J. Heyd, E. Brothers, 
 K. N. Kudin, V. N. Staroverov, T. Keith, R. Kobayashi, J. Normand, 
 K. Raghavachari, A. Rendell, J. C. Burant, S. S. Iyengar, J. Tomasi, 
 M. Cossi, N. Rega, J. M. Millam, M. Klene, J. E. Knox, J. B. Cross, 
 V. Bakken, C. Adamo, J. Jaramillo, R. Gomperts, R. E. Stratmann, 
 O. Yazyev, A. J. Austin, R. Cammi, C. Pomelli, J. W. Ochterski, 
 R. L. Martin, K. Morokuma, V. G. Zakrzewski, G. A. Voth, 
 P. Salvador, J. J. Dannenberg, S. Dapprich, A. D. Daniels, 
 O. Farkas, J. B. Foresman, J. V. Ortiz, J. Cioslowski, 
 and D. J. Fox, Gaussian, Inc., Wallingford CT, 2013.
 
 ******************************************
 Gaussian 09:  ES64L-G09RevD.01 24-Apr-2013
                25-Jul-2019 
 ******************************************
 %NProc=4
 Will use up to    4 processors via shared memory.
 %mem=4GB
 ----------------------------------------------------------------
 # PBE1PBE/SDDAll scf=(maxcycle=512) opt=(cartesian,maxcycle=512)
 ----------------------------------------------------------------
 1/6=512,10=7,14=-1,18=10,26=3,38=1/1,3;
 2/12=2,17=6,18=5,29=2,40=1/2;
 3/5=17,6=6,11=2,16=1,25=1,30=1,71=1,74=-13/1,2,3;
 4//1;
 5/5=2,7=512,38=5/2;
 6/7=2,8=2,9=2,10=2,28=1/1;
 7/7=1,29=1/1,2,3,16;
 1/6=512,10=7,14=-1,18=10,26=3/3(2);
 2/29=1/2;
 99/12=1/99;
 2/29=1/2;
 3/5=17,6=6,11=2,16=1,25=1,30=1,71=1,74=-13/1,2,3;
 4/5=5,16=3,69=1/1;
 5/5=2,7=512,38=5/2;
 7/7=1/1,2,3,16;
 1/6=512,14=-1,18=10,26=3/3(-5);
 2/29=1/2;
 6/7=2,8=2,9=2,10=2,19=2,28=1/1;
 99/9=1,12=1/99;
 ------------------------------------
 Cellular Automata job -34.4133483937
 ------------------------------------
 Symbolic Z-matrix:
 Charge =  0 Multiplicity = 1
 8                     1.44572  -0.04436   0.09993 
 1                     0.46644   0.05851   0.1445 
 1                     1.7831    0.31576  -0.73854 
 8                    -1.28312   0.02454  -0.05572 
 1                    -1.64074  -0.88269  -0.07152 
 1                    -1.9096    0.667     0.31186 
 

 GradGradGradGradGradGradGradGradGradGradGradGradGradGradGradGradGradGrad
 Berny optimization.
 Initialization pass.
 No Z-matrix variables, so optimization will use Cartesian coordinates.
 Trust Radius=3.00D-01 FncErr=1.00D-07 GrdErr=1.00D-06
 Number of steps in this run=    100 maximum allowed number of steps=    100.
 GradGradGradGradGradGradGradGradGradGradGradGradGradGradGradGradGradGrad

 ---------------------------------------------------------------------------------------------------
                            Z-MATRIX (ANGSTROMS AND DEGREES)
   CD    Cent   Atom    N1       Length/X        N2       Alpha/Y        N3        Beta/Z          J
 ---------------------------------------------------------------------------------------------------
      1      1  O        0   1.445723         -0.044357          0.099928
      2      2  H        0   0.466436          0.058509          0.144501
      3      3  H        0   1.783103          0.315758         -0.738536
      4      4  O        0  -1.283122          0.024535         -0.055717
      5      5  H        0  -1.640740         -0.882691         -0.071516
      6      6  H        0  -1.909604          0.667003          0.311863
 ---------------------------------------------------------------------------------------------------
                         Z-Matrix orientation:                         
 ---------------------------------------------------------------------
 Center     Atomic      Atomic             Coordinates (Angstroms)
 Number     Number       Type             X           Y           Z
 ---------------------------------------------------------------------
      1          8           0        1.445723   -0.044357    0.099928
      2          1           0        0.466436    0.058509    0.144501
      3          1           0        1.783103    0.315758   -0.738536
      4          8           0       -1.283122    0.024535   -0.055717
      5          1           0       -1.640740   -0.882691   -0.071516
      6          1           0       -1.909604    0.667003    0.311863
 ---------------------------------------------------------------------
                    Distance matrix (angstroms):
                    1          2          3          4          5
     1  O    0.000000
     2  H    0.985683   0.000000
     3  H    0.972898   1.606096   0.000000
     4  O    2.734148   1.761305   3.154804   0.000000
     5  H    3.202882   2.317911   3.688346   0.975294   0.000000
     6  H    3.436447   2.458422   3.855230   0.969722   1.618894
                    6
     6  H    0.000000
 Stoichiometry    H4O2
 Framework group  C1[X(H4O2)]
 Deg. of freedom    12
 Full point group                 C1      NOp   1
 Largest Abelian subgroup         C1      NOp   1
 Largest concise Abelian subgroup C1      NOp   1
                         Standard orientation:                         
 ---------------------------------------------------------------------
 Center     Atomic      Atomic             Coordinates (Angstroms)
 Number     Number       Type             X           Y           Z
 ---------------------------------------------------------------------
      1          8           0        1.445723    0.044357   -0.099928
      2          1           0        0.466436   -0.058509   -0.144501
      3          1           0        1.783103   -0.315758    0.738536
      4          8           0       -1.283122   -0.024535    0.055717
      5          1           0       -1.640740    0.882691    0.071516
      6          1           0       -1.909604   -0.667003   -0.311863
 ---------------------------------------------------------------------
 Rotational constants (GHZ):    228.9458280      7.1768583      7.1228084
 Standard basis: SDDAll (6D, 10F)
 There are    30 symmetry adapted cartesian basis functions of A   symmetry.
 There are    30 symmetry adapted basis functions of A   symmetry.
    30 basis functions,    54 primitive gaussians,    30 cartesian basis functions
     8 alpha electrons        8 beta electrons
       nuclear repulsion energy        26.0869510303 Hartrees.
 NAtoms=    6 NActive=    6 NUniq=    6 SFac= 1.00D+00 NAtFMM=   60 NAOKFM=F Big=F
 Integral buffers will be    131072 words long.
 Raffenetti 2 integral format.
 Two-electron integral symmetry is turned on.
 One-electron integrals computed using PRISM.
   1 Symmetry operations used in ECPInt.
 ECPInt:  NShTT=     171 NPrTT=     619 LenC2=     172 LenP2D=     564.
 LDataN:  DoStor=T MaxTD1= 4 Len=   56
 NBasis=    30 RedAO= T EigKep=  3.63D-02  NBF=    30
 NBsUse=    30 1.00D-06 EigRej= -1.00D+00 NBFU=    30
 ExpMin= 7.02D-02 ExpMax= 4.71D+01 ExpMxC= 4.71D+01 IAcc=2 IRadAn=         4 AccDes= 0.00D+00
 Harris functional with IExCor= 1009 and IRadAn=       4 diagonalized for initial guess.
 HarFok:  IExCor= 1009 AccDes= 0.00D+00 IRadAn=         4 IDoV= 1 UseB2=F ITyADJ=14
 ICtDFT=  3500011 ScaDFX=  1.000000  1.000000  1.000000  1.000000
 FoFCou: FMM=F IPFlag=           0 FMFlag=      100000 FMFlg1=           0
         NFxFlg=           0 DoJE=T BraDBF=F KetDBF=T FulRan=T
         wScrn=  0.000000 ICntrl=     500 IOpCl=  0 I1Cent=   200000004 NGrid=           0
         NMat0=    1 NMatS0=      1 NMatT0=    0 NMatD0=    1 NMtDS0=    0 NMtDT0=    0
 Petite list used in FoFCou.
 Keep R1 ints in memory in canonical form, NReq=1237769.
 Requested convergence on RMS density matrix=1.00D-08 within 512 cycles.
 Requested convergence on MAX density matrix=1.00D-06.
 Requested convergence on             energy=1.00D-06.
 No special actions if energy rises.
 Integral accuracy reduced to 1.0D-05 until final iterations.
 Initial convergence to 1.0D-05 achieved.  Increase integral accuracy.
 SCF Done:  E(RPBE1PBE) =  -34.4133483946     A.U. after   12 cycles
            NFock= 12  Conv=0.52D-08     -V/T= 2.2664

 **********************************************************************

            Population analysis using the SCF density.

 **********************************************************************

 Orbital symmetries:
       Occupied  (A) (A) (A) (A) (A) (A) (A) (A)
       Virtual   (A) (A) (A) (A) (A) (A) (A) (A) (A) (A) (A) (A)
                 (A) (A) (A) (A) (A) (A) (A) (A) (A) (A)
 The electronic state is 1-A.
 Alpha  occ. eigenvalues --   -1.08514  -1.00215  -0.60702  -0.53026  -0.42845
 Alpha  occ. eigenvalues --   -0.36853  -0.33383  -0.28733
 Alpha virt. eigenvalues --    0.02882   0.08563   0.09401   0.11695   0.15316
 Alpha virt. eigenvalues --    0.16447   0.18765   0.22225   0.24549   0.31555
 Alpha virt. eigenvalues --    0.88667   1.01471   1.09298   1.11836   1.14930
 Alpha virt. eigenvalues --    1.17037   1.19590   1.23005   1.24537   1.29326
 Alpha virt. eigenvalues --    2.00781   2.48678
          Condensed to atoms (all electrons):
               1          2          3          4          5          6
     1  O    6.307240   0.275660   0.281662  -0.017477   0.000292   0.000549
     2  H    0.275660   0.286491  -0.024556   0.003677   0.000273   0.000543
     3  H    0.281662  -0.024556   0.360757   0.001099   0.000001  -0.000015
     4  O   -0.017477   0.003677   0.001099   6.310015   0.280485   0.277846
     5  H    0.000292   0.000273   0.000001   0.280485   0.309399  -0.020965
     6  H    0.000549   0.000543  -0.000015   0.277846  -0.020965   0.307946
 Mulliken charges:
               1
     1  O   -0.847927
     2  H    0.457911
     3  H    0.381052
     4  O   -0.855646
     5  H    0.430514
     6  H    0.434097
 Sum of Mulliken charges =   0.00000
 Mulliken charges with hydrogens summed into heavy atoms:
               1
     1  O   -0.008964
     4  O    0.008964
 Electronic spatial extent (au):  <R**2>=            148.9751
 Charge=              0.0000 electrons
 Dipole moment (field-independent basis, Debye):
    X=             -4.3924    Y=             -0.4562    Z=              0.9345  Tot=              4.5138
 Quadrupole moment (field-independent basis, Debye-Ang):
   XX=            -10.2266   YY=            -11.8053   ZZ=            -13.8612
   XY=             -2.2490   XZ=              5.4908   YZ=              0.1935
 Traceless Quadrupole moment (field-independent basis, Debye-Ang):
   XX=              1.7377   YY=              0.1591   ZZ=             -1.8968
   XY=             -2.2490   XZ=              5.4908   YZ=              0.1935
 Octapole moment (field-independent basis, Debye-Ang**2):
  XXX=            -20.6255  YYY=              0.3459  ZZZ=              1.0922  XYY=             -6.6525
  XXY=             -3.0951  XXZ=              4.2640  XZZ=              0.9022  YZZ=             -0.4351
  YYZ=              0.1891  XYZ=             -2.4347
 Hexadecapole moment (field-independent basis, Debye-Ang**3):
 XXXX=           -148.7165 YYYY=            -15.1409 ZZZZ=            -16.5795 XXXY=             -4.4627
 XXXZ=             21.7645 YYYX=             -2.5764 YYYZ=              0.3810 ZZZX=              5.0261
 ZZZY=             -0.1460 XXYY=            -25.1665 XXZZ=            -30.7445 YYZZ=             -5.4919
 XXYZ=              0.6966 YYXZ=              1.7896 ZZXY=             -0.7162
 N-N= 2.608695103026D+01 E-N=-1.343326454724D+02  KE= 2.717378412898D+01
   1 Symmetry operations used in ECPInt.
 ECPInt:  NShTT=     171 NPrTT=     619 LenC2=     172 LenP2D=     564.
 LDataN:  DoStor=T MaxTD1= 5 Len=  102
 Calling FoFJK, ICntrl=      2127 FMM=F ISym2X=0 I1Cent= 0 IOpClX= 0 NMat=1 NMatS=1 NMatT=0.
 ***** Axes restored to original set *****
 -------------------------------------------------------------------
 Center     Atomic                   Forces (Hartrees/Bohr)
 Number     Number              X              Y              Z
 -------------------------------------------------------------------
      1        8          -0.000971067    0.002696815   -0.003142553
      2        1           0.000950000   -0.000750787   -0.001701305
      3        1          -0.000068458   -0.001812292    0.003634357
      4        8          -0.000470793   -0.004928852    0.001836085
      5        1           0.000773950    0.006564746    0.000049705
      6        1          -0.000213632   -0.001769631   -0.000676290
 -------------------------------------------------------------------
 Cartesian Forces:  Max     0.006564746 RMS     0.002518466

 GradGradGradGradGradGradGradGradGradGradGradGradGradGradGradGradGradGrad
 Berny optimization.
 Search for a local minimum.
 Step number   1 out of a maximum of  100
 All quantities printed in internal units (Hartrees-Bohrs-Radians)
 Second derivative matrix not updated -- first step.
 The second derivative matrix:
                          X1        Y1        Z1        X2        Y2
           X1           0.60059
           Y1          -0.01397   0.09932
           Z1          -0.12955  -0.20299   0.45662
           X2          -0.49627   0.05201   0.02284   0.49646
           Y2           0.07088  -0.01911   0.02104  -0.05206   0.01411
           Z2          -0.01644   0.02603  -0.04982  -0.02278  -0.01562
           X3          -0.10432  -0.03804   0.10672  -0.00019  -0.01882
           Y3          -0.05692  -0.08021   0.18195   0.00005   0.00500
           Z3           0.14599   0.17697  -0.40680  -0.00006  -0.00543
           X4           0.00000   0.00000   0.00000   0.00000   0.00000
           Y4           0.00000   0.00000   0.00000   0.00000   0.00000
           Z4           0.00000   0.00000   0.00000   0.00000   0.00000
           X5           0.00000   0.00000   0.00000   0.00000   0.00000
           Y5           0.00000   0.00000   0.00000   0.00000   0.00000
           Z5           0.00000   0.00000   0.00000   0.00000   0.00000
           X6           0.00000   0.00000   0.00000   0.00000   0.00000
           Y6           0.00000   0.00000   0.00000   0.00000   0.00000
           Z6           0.00000   0.00000   0.00000   0.00000   0.00000
                          Z2        X3        Y3        Z3        X4
           Z2           0.03851
           X3           0.03922   0.10451
           Y3          -0.01041   0.05687   0.07522
           Z3           0.01131  -0.14593  -0.17154   0.39550
           X4           0.00000   0.00000   0.00000   0.00000   0.40283
           Y4           0.00000   0.00000   0.00000   0.00000  -0.02112
           Z4           0.00000   0.00000   0.00000   0.00000  -0.16693
           X5           0.00000   0.00000   0.00000   0.00000  -0.13161
           Y5           0.00000   0.00000   0.00000   0.00000  -0.15477
           Z5           0.00000   0.00000   0.00000   0.00000   0.02591
           X6           0.00000   0.00000   0.00000   0.00000  -0.27122
           Y6           0.00000   0.00000   0.00000   0.00000   0.17589
           Z6           0.00000   0.00000   0.00000   0.00000   0.14102
                          Y4        Z4        X5        Y5        Z5
           Y4           0.69494
           Z4           0.13163   0.09094
           X5          -0.19475   0.01883   0.10464
           Y5          -0.44633  -0.01635   0.16518   0.45774
           Z5          -0.00015  -0.01052  -0.01313   0.01415   0.00783
           X6           0.21587   0.14810   0.02698  -0.01041  -0.01277
           Y6          -0.24862  -0.11529   0.02957  -0.01141  -0.01400
           Z6          -0.13148  -0.08042  -0.00569   0.00220   0.00270
                          X6        Y6        Z6
           X6           0.24424
           Y6          -0.20546   0.26003
           Z6          -0.13533   0.12928   0.07772
 ITU=  0
     Eigenvalues ---    0.00000   0.00000   0.00000   0.00000   0.00000
     Eigenvalues ---    0.00000   0.14969   0.15889   0.80522   0.85464
     Eigenvalues ---    1.07425   1.10808
 RFO step:  Lambda=-3.42044830D-03 EMin=-5.55111512D-16
 Linear search not attempted -- first point.
 Maximum step size (   0.300) exceeded in Quadratic search.
    -- Step size scaled by   0.307
 TrRot=  0.004260  0.008024  0.030048  0.808533  0.007838 -0.802884
 Variable       Old X    -DE/DX   Delta X   Delta X   Delta X     New X
                                 (Linear)    (Quad)   (Total)
    X1        2.73202  -0.00097   0.00000  -0.04101  -0.03552   2.69650
    Y1       -0.08382   0.00270   0.00000   0.04477   0.06910  -0.01472
    Z1        0.18884  -0.00314   0.00000   0.01258   0.02819   0.21703
    X2        0.88144   0.00095   0.00000  -0.05903  -0.05470   0.82673
    Y2        0.11057  -0.00075   0.00000  -0.04782  -0.03470   0.07586
    Z2        0.27307  -0.00170   0.00000  -0.19086  -0.16564   0.10742
    X3        3.36958  -0.00007   0.00000   0.08535   0.07897   3.44854
    Y3        0.59670  -0.00181   0.00000  -0.04414  -0.02443   0.57227
    Z3       -1.39563   0.00363   0.00000   0.02773   0.03589  -1.35974
    X4       -2.42475  -0.00047   0.00000   0.05489   0.05917  -2.36558
    Y4        0.04636  -0.00493   0.00000  -0.02304  -0.02829   0.01808
    Z4       -0.10529   0.00184   0.00000   0.11907   0.16189   0.05660
    X5       -3.10055   0.00077   0.00000  -0.04620  -0.03377  -3.13432
    Y5       -1.66804   0.00656   0.00000   0.02455   0.01360  -1.65445
    Z5       -0.13515   0.00005   0.00000  -0.09380  -0.03735  -0.17250
    X6       -3.60863  -0.00021   0.00000  -0.01412  -0.01414  -3.62277
    Y6        1.26045  -0.00177   0.00000   0.01417   0.00471   1.26517
    Z6        0.58934  -0.00068   0.00000  -0.06555  -0.02298   0.56635
         Item               Value     Threshold  Converged?
 Maximum Force            0.006565     0.000450     NO 
 RMS     Force            0.002518     0.000300     NO 
 Maximum Displacement     0.165643     0.001800     NO 
 RMS     Displacement     0.066903     0.001200     NO 
 Predicted change in Energy=-1.032791D-03
 GradGradGradGradGradGradGradGradGradGradGradGradGradGradGradGradGradGrad

                          Input orientation:                          
 ---------------------------------------------------------------------
 Center     Atomic      Atomic             Coordinates (Angstroms)
 Number     Number       Type             X           Y           Z
 ---------------------------------------------------------------------
      1          8           0        1.426925   -0.007790    0.114845
      2          1           0        0.437489    0.040146    0.056847
      3          1           0        1.824891    0.302832   -0.719542
      4          8           0       -1.251811    0.009567    0.029953
      5          1           0       -1.658613   -0.875495   -0.091281
      6          1           0       -1.917085    0.669497    0.299701
 ---------------------------------------------------------------------
                    Distance matrix (angstroms):
                    1          2          3          4          5
     1  O    0.000000
     2  H    0.992293   0.000000
     3  H    0.975225   1.611418   0.000000
     4  O    2.680137   1.689791   3.180227   0.000000
     5  H    3.211844   2.292157   3.730679   0.981590   0.000000
     6  H    3.416912   2.449302   3.895598   0.975121   1.614520
                    6
     6  H    0.000000
 Stoichiometry    H4O2
 Framework group  C1[X(H4O2)]
 Deg. of freedom    12
 Full point group                 C1      NOp   1
 Largest Abelian subgroup         C1      NOp   1
 Largest concise Abelian subgroup C1      NOp   1
                         Standard orientation:                         
 ---------------------------------------------------------------------
 Center     Atomic      Atomic             Coordinates (Angstroms)
 Number     Number       Type             X           Y           Z
 ---------------------------------------------------------------------
      1          8           0        1.420454    0.024919   -0.109099
      2          1           0        0.433070   -0.029185   -0.026698
      3          1           0        1.838274   -0.190714    0.745298
      4          8           0       -1.255715   -0.017399    0.030425
      5          1           0       -1.673206    0.870279    0.065761
      6          1           0       -1.916055   -0.710536   -0.154971
 ---------------------------------------------------------------------
 Rotational constants (GHZ):    244.0755042      7.3941084      7.3326776
 Standard basis: SDDAll (6D, 10F)
 There are    30 symmetry adapted cartesian basis functions of A   symmetry.
 There are    30 symmetry adapted basis functions of A   symmetry.
    30 basis functions,    54 primitive gaussians,    30 cartesian basis functions
     8 alpha electrons        8 beta electrons
       nuclear repulsion energy        26.2299847556 Hartrees.
 NAtoms=    6 NActive=    6 NUniq=    6 SFac= 1.00D+00 NAtFMM=   60 NAOKFM=F Big=F
 Integral buffers will be    131072 words long.
 Raffenetti 2 integral format.
 Two-electron integral symmetry is turned on.
 One-electron integrals computed using PRISM.
   1 Symmetry operations used in ECPInt.
 ECPInt:  NShTT=     171 NPrTT=     619 LenC2=     172 LenP2D=     564.
 LDataN:  DoStor=T MaxTD1= 4 Len=   56
 NBasis=    30 RedAO= T EigKep=  3.24D-02  NBF=    30
 NBsUse=    30 1.00D-06 EigRej= -1.00D+00 NBFU=    30
 Initial guess from the checkpoint file:  "/tmp/Gau-28105.chk"
 B after Tr=     0.000000    0.000000    0.000000
         Rot=    0.998307    0.058129   -0.001850   -0.001180 Ang=   6.67 deg.
 ExpMin= 7.02D-02 ExpMax= 4.71D+01 ExpMxC= 4.71D+01 IAcc=2 IRadAn=         4 AccDes= 0.00D+00
 Harris functional with IExCor= 1009 and IRadAn=       4 diagonalized for initial guess.
 HarFok:  IExCor= 1009 AccDes= 0.00D+00 IRadAn=         4 IDoV= 1 UseB2=F ITyADJ=14
 ICtDFT=  3500011 ScaDFX=  1.000000  1.000000  1.000000  1.000000
 FoFCou: FMM=F IPFlag=           0 FMFlag=      100000 FMFlg1=           0
         NFxFlg=           0 DoJE=T BraDBF=F KetDBF=T FulRan=T
         wScrn=  0.000000 ICntrl=     500 IOpCl=  0 I1Cent=   200000004 NGrid=           0
         NMat0=    1 NMatS0=      1 NMatT0=    0 NMatD0=    1 NMtDS0=    0 NMtDT0=    0
 Petite list used in FoFCou.
 Keep R1 ints in memory in canonical form, NReq=1237769.
 Requested convergence on RMS density matrix=1.00D-08 within 512 cycles.
 Requested convergence on MAX density matrix=1.00D-06.
 Requested convergence on             energy=1.00D-06.
 No special actions if energy rises.
 Integral accuracy reduced to 1.0D-05 until final iterations.
 Initial convergence to 1.0D-05 achieved.  Increase integral accuracy.
 SCF Done:  E(RPBE1PBE) =  -34.4132251062     A.U. after   11 cycles
            NFock= 11  Conv=0.65D-08     -V/T= 2.2679
   1 Symmetry operations used in ECPInt.
 ECPInt:  NShTT=     171 NPrTT=     619 LenC2=     172 LenP2D=     564.
 LDataN:  DoStor=T MaxTD1= 5 Len=  102
 Calling FoFJK, ICntrl=      2127 FMM=F ISym2X=0 I1Cent= 0 IOpClX= 0 NMat=1 NMatS=1 NMatT=0.
 ***** Axes restored to original set *****
 -------------------------------------------------------------------
 Center     Atomic                   Forces (Hartrees/Bohr)
 Number     Number              X              Y              Z
 -------------------------------------------------------------------
      1        8          -0.003371238    0.002610050   -0.008774959
      2        1           0.004935629    0.000504762    0.004121447
      3        1           0.000136752   -0.002034298    0.005590606
      4        8          -0.011834670   -0.008363665   -0.001756379
      5        1           0.004884184    0.010317889    0.001796273
      6        1           0.005249343   -0.003034738   -0.000976987
 -------------------------------------------------------------------
 Cartesian Forces:  Max     0.011834670 RMS     0.005560509

 GradGradGradGradGradGradGradGradGradGradGradGradGradGradGradGradGradGrad
 Berny optimization.
 Search for a local minimum.
 Step number   2 out of a maximum of  100
 All quantities printed in internal units (Hartrees-Bohrs-Radians)
 Update second derivatives using D2CorN and points    2    1
 DE=  1.23D-04 DEPred=-1.03D-03 R=-1.19D-01
 Trust test=-1.19D-01 RLast= 2.84D-01 DXMaxT set to 1.50D-01
 The second derivative matrix:
                          X1        Y1        Z1        X2        Y2
           X1           0.59947
           Y1          -0.01279   0.09901
           Z1          -0.13055  -0.20026   0.45891
           X2          -0.49620   0.05031   0.01987   0.49935
           Y2           0.07059  -0.01952   0.01943  -0.05075   0.01461
           Z2          -0.01774   0.02384  -0.05758  -0.01638  -0.01315
           X3          -0.10305  -0.03826   0.10990  -0.00225  -0.01937
           Y3          -0.05743  -0.07992   0.18106   0.00050   0.00505
           Z3           0.14716   0.17572  -0.40582  -0.00008  -0.00510
           X4          -0.00152   0.00465   0.00435  -0.00535  -0.00283
           Y4          -0.00127   0.00166  -0.00050  -0.00052  -0.00060
           Z4           0.00174   0.00123   0.00721  -0.00554  -0.00196
           X5           0.00034  -0.00163  -0.00206   0.00224   0.00110
           Y5           0.00126  -0.00206  -0.00028   0.00125   0.00092
           Z5          -0.00016  -0.00076  -0.00186   0.00166   0.00069
           X6           0.00097  -0.00228  -0.00152   0.00221   0.00126
           Y6          -0.00036   0.00083   0.00053  -0.00079  -0.00046
           Z6          -0.00045   0.00022  -0.00086   0.00047   0.00008
                          Z2        X3        Y3        Z3        X4
           Z2           0.05078
           X3           0.03638   0.10443
           Y3          -0.01009   0.05716   0.07505
           Z3           0.01277  -0.14728  -0.17100   0.39429
           X4          -0.01367   0.00544  -0.00148   0.00149   0.41103
           Y4          -0.00277   0.00184  -0.00066   0.00130  -0.02172
           Z4          -0.00982   0.00174   0.00001  -0.00189  -0.15435
           X5           0.00533  -0.00193   0.00048  -0.00032  -0.13541
           Y5           0.00436  -0.00233   0.00077  -0.00128  -0.15556
           Z5           0.00342  -0.00095   0.00017   0.00019   0.02260
           X6           0.00607  -0.00264   0.00077  -0.00097  -0.27418
           Y6          -0.00219   0.00096  -0.00028   0.00036   0.17694
           Z6           0.00044   0.00021  -0.00014   0.00048   0.13958
                          Y4        Z4        X5        Y5        Z5
           Y4           0.69364
           Z4           0.13472   0.09842
           X5          -0.19483   0.01406   0.10630
           Y5          -0.44518  -0.02079   0.16584   0.45694
           Z5          -0.00067  -0.01337  -0.01180   0.01508   0.00874
           X6           0.21649   0.14235   0.02846  -0.01045  -0.01135
           Y6          -0.24885  -0.11321   0.02904  -0.01138  -0.01451
           Z6          -0.13208  -0.08055  -0.00521   0.00291   0.00289
                          X6        Y6        Z6
           X6           0.24518
           Y6          -0.20579   0.26014
           Z6          -0.13460   0.12902   0.07761
 ITU= -1  0
 Energy rises -- skip Quadratic search.
 Quartic linear search produced a step of -0.52104.
 TrRot=  0.000000  0.000000  0.000000  0.000000  0.000000  0.000000
 Variable       Old X    -DE/DX   Delta X   Delta X   Delta X     New X
                                 (Linear)    (Quad)   (Total)
    X1        2.69650  -0.00337   0.01851   0.00000   0.01851   2.71501
    Y1       -0.01472   0.00261  -0.03600   0.00000  -0.03600  -0.05073
    Z1        0.21703  -0.00877  -0.01469   0.00000  -0.01469   0.20234
    X2        0.82673   0.00494   0.02850   0.00000   0.02850   0.85524
    Y2        0.07586   0.00050   0.01808   0.00000   0.01808   0.09395
    Z2        0.10742   0.00412   0.08631   0.00000   0.08631   0.19373
    X3        3.44854   0.00014  -0.04115   0.00000  -0.04115   3.40740
    Y3        0.57227  -0.00203   0.01273   0.00000   0.01273   0.58500
    Z3       -1.35974   0.00559  -0.01870   0.00000  -0.01870  -1.37844
    X4       -2.36558  -0.01183  -0.03083   0.00000  -0.03083  -2.39641
    Y4        0.01808  -0.00836   0.01474   0.00000   0.01474   0.03282
    Z4        0.05660  -0.00176  -0.08435   0.00000  -0.08435  -0.02775
    X5       -3.13432   0.00488   0.01760   0.00000   0.01760  -3.11673
    Y5       -1.65445   0.01032  -0.00709   0.00000  -0.00709  -1.66153
    Z5       -0.17250   0.00180   0.01946   0.00000   0.01946  -0.15303
    X6       -3.62277   0.00525   0.00737   0.00000   0.00737  -3.61540
    Y6        1.26517  -0.00303  -0.00246   0.00000  -0.00246   1.26271
    Z6        0.56635  -0.00098   0.01197   0.00000   0.01197   0.57833
         Item               Value     Threshold  Converged?
 Maximum Force            0.011835     0.000450     NO 
 RMS     Force            0.005561     0.000300     NO 
 Maximum Displacement     0.086306     0.001800     NO 
 RMS     Displacement     0.034859     0.001200     NO 
 Predicted change in Energy=-3.377115D-04
 GradGradGradGradGradGradGradGradGradGradGradGradGradGradGradGradGradGrad

                          Input orientation:                          
 ---------------------------------------------------------------------
 Center     Atomic      Atomic             Coordinates (Angstroms)
 Number     Number       Type             X           Y           Z
 ---------------------------------------------------------------------
      1          8           0        1.436719   -0.026843    0.107073
      2          1           0        0.452571    0.049714    0.102518
      3          1           0        1.803118    0.309567   -0.729438
      4          8           0       -1.268125    0.017366   -0.014684
      5          1           0       -1.649300   -0.879244   -0.080983
      6          1           0       -1.913187    0.668197    0.306038
 ---------------------------------------------------------------------
                    Distance matrix (angstroms):
                    1          2          3          4          5
     1  O    0.000000
     2  H    0.987132   0.000000
     3  H    0.973227   1.607374   0.000000
     4  O    2.707945   1.724987   3.166826   0.000000
     5  H    3.207097   2.305320   3.708498   0.976524   0.000000
     6  H    3.427031   2.453723   3.874500   0.970850   1.616786
                    6
     6  H    0.000000
 Stoichiometry    H4O2
 Framework group  C1[X(H4O2)]
 Deg. of freedom    12
 Full point group                 C1      NOp   1
 Largest Abelian subgroup         C1      NOp   1
 Largest concise Abelian subgroup C1      NOp   1
                         Standard orientation:                         
 ---------------------------------------------------------------------
 Center     Atomic      Atomic             Coordinates (Angstroms)
 Number     Number       Type             X           Y           Z
 ---------------------------------------------------------------------
      1          8           0        1.433514    0.035175   -0.104911
      2          1           0        0.450010   -0.047518   -0.087301
      3          1           0        1.809687   -0.254857    0.744527
      4          8           0       -1.269764   -0.020448    0.043942
      5          1           0       -1.656651    0.875868    0.067093
      6          1           0       -1.913040   -0.691310   -0.236572
 ---------------------------------------------------------------------
 Rotational constants (GHZ):    237.0082481      7.2818969      7.2240584
 Standard basis: SDDAll (6D, 10F)
 There are    30 symmetry adapted cartesian basis functions of A   symmetry.
 There are    30 symmetry adapted basis functions of A   symmetry.
    30 basis functions,    54 primitive gaussians,    30 cartesian basis functions
     8 alpha electrons        8 beta electrons
       nuclear repulsion energy        26.1763678478 Hartrees.
 NAtoms=    6 NActive=    6 NUniq=    6 SFac= 1.00D+00 NAtFMM=   60 NAOKFM=F Big=F
 Integral buffers will be    131072 words long.
 Raffenetti 2 integral format.
 Two-electron integral symmetry is turned on.
 One-electron integrals computed using PRISM.
   1 Symmetry operations used in ECPInt.
 ECPInt:  NShTT=     171 NPrTT=     619 LenC2=     172 LenP2D=     564.
 LDataN:  DoStor=T MaxTD1= 4 Len=   56
 NBasis=    30 RedAO= T EigKep=  3.41D-02  NBF=    30
 NBsUse=    30 1.00D-06 EigRej= -1.00D+00 NBFU=    30
 Lowest energy guess from the checkpoint file:  "/tmp/Gau-28105.chk"
 B after Tr=     0.000000    0.000000    0.000000
         Rot=    0.999594    0.028463   -0.000916   -0.000604 Ang=   3.26 deg.
 B after Tr=     0.000000    0.000000    0.000000
         Rot=    0.999559   -0.029662    0.000935    0.000577 Ang=  -3.40 deg.
 Keep R1 ints in memory in canonical form, NReq=1237769.
 Requested convergence on RMS density matrix=1.00D-08 within 512 cycles.
 Requested convergence on MAX density matrix=1.00D-06.
 Requested convergence on             energy=1.00D-06.
 No special actions if energy rises.
 Integral accuracy reduced to 1.0D-05 until final iterations.
 Initial convergence to 1.0D-05 achieved.  Increase integral accuracy.
 SCF Done:  E(RPBE1PBE) =  -34.4136061935     A.U. after    9 cycles
            NFock=  9  Conv=0.56D-08     -V/T= 2.2666
   1 Symmetry operations used in ECPInt.
 ECPInt:  NShTT=     171 NPrTT=     619 LenC2=     172 LenP2D=     564.
 LDataN:  DoStor=T MaxTD1= 5 Len=  102
 Calling FoFJK, ICntrl=      2127 FMM=F ISym2X=0 I1Cent= 0 IOpClX= 0 NMat=1 NMatS=1 NMatT=0.
 ***** Axes restored to original set *****
 -------------------------------------------------------------------
 Center     Atomic                   Forces (Hartrees/Bohr)
 Number     Number              X              Y              Z
 -------------------------------------------------------------------
      1        8          -0.001080224    0.002410859   -0.005142674
      2        1           0.001392407   -0.000133460    0.000910442
      3        1           0.000273126   -0.001716425    0.004027327
      4        8          -0.003987005   -0.006053110    0.000146973
      5        1           0.001943903    0.007282324    0.000659387
      6        1           0.001457793   -0.001790188   -0.000601455
 -------------------------------------------------------------------
 Cartesian Forces:  Max     0.007282324 RMS     0.003081731

 GradGradGradGradGradGradGradGradGradGradGradGradGradGradGradGradGradGrad
 Berny optimization.
 Search for a local minimum.
 Step number   3 out of a maximum of  100
 All quantities printed in internal units (Hartrees-Bohrs-Radians)
 Update second derivatives using D2CorN and points    1    3
 The second derivative matrix:
                          X1        Y1        Z1        X2        Y2
           X1           0.59961
           Y1          -0.01276   0.09834
           Z1          -0.13090  -0.19981   0.45938
           X2          -0.49649   0.05135   0.01973   0.49812
           Y2           0.07067  -0.01938   0.01913  -0.05113   0.01463
           Z2          -0.01742   0.02467  -0.05896  -0.01826  -0.01310
           X3          -0.10281  -0.03942   0.11025  -0.00074  -0.01900
           Y3          -0.05744  -0.07969   0.18090   0.00014   0.00500
           Z3           0.14726   0.17521  -0.40566   0.00059  -0.00494
           X4          -0.00178   0.00463   0.00496  -0.00489  -0.00298
           Y4          -0.00148   0.00232  -0.00052  -0.00125  -0.00085
           Z4           0.00159   0.00010   0.00844  -0.00345  -0.00184
           X5           0.00036  -0.00137  -0.00231   0.00178   0.00106
           Y5           0.00130  -0.00227  -0.00022   0.00151   0.00099
           Z5          -0.00010  -0.00054  -0.00216   0.00121   0.00069
           X6           0.00111  -0.00243  -0.00172   0.00222   0.00138
           Y6          -0.00030   0.00067   0.00052  -0.00063  -0.00039
           Z6          -0.00043   0.00038  -0.00104   0.00018   0.00006
                          Z2        X3        Y3        Z3        X4
           Z2           0.05068
           X3           0.03827   0.10265
           Y3          -0.01036   0.05756   0.07497
           Z3           0.01360  -0.14808  -0.17082   0.39393
           X4          -0.01427   0.00507  -0.00148   0.00133   0.41147
           Y4          -0.00404   0.00276  -0.00089   0.00172  -0.02137
           Z4          -0.00895  -0.00048   0.00039  -0.00288  -0.15404
           X5           0.00509  -0.00144   0.00039  -0.00010  -0.13546
           Y5           0.00471  -0.00264   0.00084  -0.00142  -0.15564
           Z5           0.00332  -0.00049   0.00010   0.00039   0.02249
           X6           0.00658  -0.00272   0.00082  -0.00101  -0.27442
           Y6          -0.00186   0.00075  -0.00023   0.00026   0.17684
           Z6           0.00032   0.00052  -0.00020   0.00061   0.13953
                          Y4        Z4        X5        Y5        Z5
           Y4           0.69321
           Z4           0.13609   0.09680
           X5          -0.19513   0.01445   0.10621
           Y5          -0.44502  -0.02119   0.16593   0.45688
           Z5          -0.00097  -0.01310  -0.01187   0.01516   0.00870
           X6           0.21647   0.14192   0.02854  -0.01047  -0.01124
           Y6          -0.24876  -0.11355   0.02911  -0.01142  -0.01443
           Z6          -0.13228  -0.08032  -0.00527   0.00296   0.00285
                          X6        Y6        Z6
           X6           0.24527
           Y6          -0.20577   0.26012
           Z6          -0.13453   0.12906   0.07758
 ITU=  0 -1  0
     Eigenvalues ---   -0.00251   0.00000   0.00000   0.00000   0.00000
     Eigenvalues ---    0.02458   0.15032   0.15928   0.80904   0.85451
     Eigenvalues ---    1.07853   1.11110
 RFO step:  Lambda=-3.05510957D-03 EMin=-2.51299936D-03
 Quartic linear search produced a step of -0.00143.
 Maximum step size (   0.150) exceeded in Quadratic search.
    -- Step size scaled by   0.299
 TrRot= -0.005139 -0.007152 -0.003240  0.000627 -0.000022  0.000627
 Variable       Old X    -DE/DX   Delta X   Delta X   Delta X     New X
                                 (Linear)    (Quad)   (Total)
    X1        2.71501  -0.00108   0.00002  -0.00124  -0.00629   2.70871
    Y1       -0.05073   0.00241  -0.00005  -0.00357  -0.00737  -0.05809
    Z1        0.20234  -0.00514  -0.00002  -0.00553  -0.00873   0.19361
    X2        0.85524   0.00139   0.00004   0.00400  -0.00130   0.85394
    Y2        0.09395  -0.00013   0.00002   0.05788   0.05183   0.14578
    Z2        0.19373   0.00091   0.00011  -0.05226  -0.05537   0.13836
    X3        3.40740   0.00027  -0.00005   0.07808   0.07216   3.47956
    Y3        0.58500  -0.00172   0.00002   0.01269   0.00993   0.59492
    Z3       -1.37844   0.00403  -0.00002   0.03655   0.03336  -1.34508
    X4       -2.39641  -0.00399  -0.00004  -0.02029  -0.02547  -2.42188
    Y4        0.03282  -0.00605   0.00002  -0.02787  -0.03803  -0.00522
    Z4       -0.02775   0.00015  -0.00011  -0.00792  -0.01132  -0.03907
    X5       -3.11673   0.00194   0.00002  -0.06841  -0.07143  -3.18816
    Y5       -1.66153   0.00728  -0.00001  -0.00360  -0.01475  -1.67628
    Z5       -0.15303   0.00066   0.00003   0.02659   0.02330  -0.12973
    X6       -3.61540   0.00146   0.00001   0.03907   0.03233  -3.58307
    Y6        1.26271  -0.00179   0.00000   0.01003  -0.00161   1.26110
    Z6        0.57833  -0.00060   0.00002   0.02205   0.01875   0.59708
         Item               Value     Threshold  Converged?
 Maximum Force            0.007282     0.000450     NO 
 RMS     Force            0.003082     0.000300     NO 
 Maximum Displacement     0.072162     0.001800     NO 
 RMS     Displacement     0.034825     0.001200     NO 
 Predicted change in Energy=-2.685419D-04
 GradGradGradGradGradGradGradGradGradGradGradGradGradGradGradGradGradGrad

                          Input orientation:                          
 ---------------------------------------------------------------------
 Center     Atomic      Atomic             Coordinates (Angstroms)
 Number     Number       Type             X           Y           Z
 ---------------------------------------------------------------------
      1          8           0        1.433390   -0.030741    0.102455
      2          1           0        0.451885    0.077142    0.073216
      3          1           0        1.841304    0.314820   -0.711783
      4          8           0       -1.281605   -0.002760   -0.020675
      5          1           0       -1.687100   -0.887049   -0.068650
      6          1           0       -1.896078    0.667345    0.315960
 ---------------------------------------------------------------------
                    Distance matrix (angstroms):
                    1          2          3          4          5
     1  O    0.000000
     2  H    0.987849   0.000000
     3  H    0.974059   1.613444   0.000000
     4  O    2.717930   1.737868   3.214195   0.000000
     5  H    3.240370   2.350542   3.782559   0.974010   0.000000
     6  H    3.408557   2.433144   3.892115   0.969505   1.614849
                    6
     6  H    0.000000
 Stoichiometry    H4O2
 Framework group  C1[X(H4O2)]
 Deg. of freedom    12
 Full point group                 C1      NOp   1
 Largest Abelian subgroup         C1      NOp   1
 Largest concise Abelian subgroup C1      NOp   1
                         Standard orientation:                         
 ---------------------------------------------------------------------
 Center     Atomic      Atomic             Coordinates (Angstroms)
 Number     Number       Type             X           Y           Z
 ---------------------------------------------------------------------
      1          8           0        1.435769    0.039847   -0.105369
      2          1           0        0.456147   -0.079108   -0.060231
      3          1           0        1.856121   -0.255664    0.722139
      4          8           0       -1.277291   -0.016886    0.047036
      5          1           0       -1.694303    0.863329    0.051246
      6          1           0       -1.885784   -0.712242   -0.246490
 ---------------------------------------------------------------------
 Rotational constants (GHZ):    238.6307313      7.2209626      7.1596029
 Standard basis: SDDAll (6D, 10F)
 There are    30 symmetry adapted cartesian basis functions of A   symmetry.
 There are    30 symmetry adapted basis functions of A   symmetry.
    30 basis functions,    54 primitive gaussians,    30 cartesian basis functions
     8 alpha electrons        8 beta electrons
       nuclear repulsion energy        26.1179142207 Hartrees.
 NAtoms=    6 NActive=    6 NUniq=    6 SFac= 1.00D+00 NAtFMM=   60 NAOKFM=F Big=F
 Integral buffers will be    131072 words long.
 Raffenetti 2 integral format.
 Two-electron integral symmetry is turned on.
 One-electron integrals computed using PRISM.
   1 Symmetry operations used in ECPInt.
 ECPInt:  NShTT=     171 NPrTT=     619 LenC2=     172 LenP2D=     564.
 LDataN:  DoStor=T MaxTD1= 4 Len=   56
 NBasis=    30 RedAO= T EigKep=  3.52D-02  NBF=    30
 NBsUse=    30 1.00D-06 EigRej= -1.00D+00 NBFU=    30
 Initial guess from the checkpoint file:  "/tmp/Gau-28105.chk"
 B after Tr=     0.000000    0.000000    0.000000
         Rot=    0.999997    0.001675   -0.000502   -0.001529 Ang=   0.27 deg.
 ExpMin= 7.02D-02 ExpMax= 4.71D+01 ExpMxC= 4.71D+01 IAcc=2 IRadAn=         4 AccDes= 0.00D+00
 Harris functional with IExCor= 1009 and IRadAn=       4 diagonalized for initial guess.
 HarFok:  IExCor= 1009 AccDes= 0.00D+00 IRadAn=         4 IDoV= 1 UseB2=F ITyADJ=14
 ICtDFT=  3500011 ScaDFX=  1.000000  1.000000  1.000000  1.000000
 FoFCou: FMM=F IPFlag=           0 FMFlag=      100000 FMFlg1=           0
         NFxFlg=           0 DoJE=T BraDBF=F KetDBF=T FulRan=T
         wScrn=  0.000000 ICntrl=     500 IOpCl=  0 I1Cent=   200000004 NGrid=           0
         NMat0=    1 NMatS0=      1 NMatT0=    0 NMatD0=    1 NMtDS0=    0 NMtDT0=    0
 Petite list used in FoFCou.
 Keep R1 ints in memory in canonical form, NReq=1237769.
 Requested convergence on RMS density matrix=1.00D-08 within 512 cycles.
 Requested convergence on MAX density matrix=1.00D-06.
 Requested convergence on             energy=1.00D-06.
 No special actions if energy rises.
 Integral accuracy reduced to 1.0D-05 until final iterations.
 Initial convergence to 1.0D-05 achieved.  Increase integral accuracy.
 SCF Done:  E(RPBE1PBE) =  -34.4136842320     A.U. after   11 cycles
            NFock= 11  Conv=0.30D-08     -V/T= 2.2664
   1 Symmetry operations used in ECPInt.
 ECPInt:  NShTT=     171 NPrTT=     619 LenC2=     172 LenP2D=     564.
 LDataN:  DoStor=T MaxTD1= 5 Len=  102
 Calling FoFJK, ICntrl=      2127 FMM=F ISym2X=0 I1Cent= 0 IOpClX= 0 NMat=1 NMatS=1 NMatT=0.
 ***** Axes restored to original set *****
 -------------------------------------------------------------------
 Center     Atomic                   Forces (Hartrees/Bohr)
 Number     Number              X              Y              Z
 -------------------------------------------------------------------
      1        8          -0.001012979    0.003795793   -0.005464430
      2        1           0.001707029   -0.002335809    0.000625419
      3        1          -0.000773803   -0.002149690    0.004575744
      4        8          -0.002005265   -0.003071211    0.000040679
      5        1           0.001948618    0.005149735    0.000505693
      6        1           0.000136400   -0.001388818   -0.000283106
 -------------------------------------------------------------------
 Cartesian Forces:  Max     0.005464430 RMS     0.002648563

 GradGradGradGradGradGradGradGradGradGradGradGradGradGradGradGradGradGrad
 Berny optimization.
 Search for a local minimum.
 Step number   4 out of a maximum of  100
 All quantities printed in internal units (Hartrees-Bohrs-Radians)
 Update second derivatives using D2CorN and points    2    1    3    4
 DE= -7.80D-05 DEPred=-2.69D-04 R= 2.91D-01
 Trust test= 2.91D-01 RLast= 1.48D-01 DXMaxT set to 1.50D-01
 The second derivative matrix:
                          X1        Y1        Z1        X2        Y2
           X1           0.59869
           Y1          -0.01128   0.09969
           Z1          -0.13105  -0.19878   0.45912
           X2          -0.49665   0.05002   0.01856   0.50013
           Y2           0.06930  -0.02413   0.02039  -0.05010   0.02334
           Z2          -0.01898   0.02740  -0.06372  -0.01481  -0.01550
           X3          -0.10262  -0.04447   0.11433  -0.00208  -0.01243
           Y3          -0.05812  -0.08060   0.18089   0.00054   0.00745
           Z3           0.14787   0.17314  -0.40330   0.00025  -0.00521
           X4          -0.00154   0.00979   0.00608  -0.00810  -0.01053
           Y4          -0.00166   0.00638  -0.00173  -0.00158  -0.00712
           Z4           0.00409   0.00136   0.00960  -0.00654  -0.00385
           X5           0.00120   0.00246  -0.00657   0.00308  -0.00370
           Y5           0.00224  -0.00279  -0.00158   0.00231   0.00169
           Z5          -0.00082  -0.00255  -0.00157   0.00215   0.00319
           X6           0.00092  -0.00652  -0.00134   0.00360   0.00746
           Y6          -0.00048   0.00145   0.00080  -0.00119  -0.00122
           Z6          -0.00110  -0.00056  -0.00013   0.00038   0.00098
                          Z2        X3        Y3        Z3        X4
           Z2           0.05280
           X3           0.03674   0.10651
           Y3          -0.01176   0.05999   0.07551
           Z3           0.01708  -0.15131  -0.17028   0.39012
           X4          -0.01759   0.00225  -0.00386   0.00150   0.41982
           Y4          -0.00359  -0.00109  -0.00296   0.00253  -0.01738
           Z4          -0.01092  -0.00060   0.00015  -0.00271  -0.14679
           X5           0.00710  -0.00436  -0.00131   0.00338  -0.13258
           Y5           0.00644  -0.00288   0.00115  -0.00059  -0.15585
           Z5           0.00425   0.00021   0.00089  -0.00070   0.01897
           X6           0.00754   0.00030   0.00278  -0.00169  -0.27986
           Y6          -0.00298   0.00089  -0.00055   0.00041   0.17784
           Z6           0.00051   0.00063   0.00011  -0.00050   0.13784
                          Y4        Z4        X5        Y5        Z5
           Y4           0.69660
           Z4           0.13914   0.09724
           X5          -0.19131   0.01182   0.10685
           Y5          -0.44434  -0.02475   0.16462   0.45561
           Z5          -0.00293  -0.01379  -0.01147   0.01637   0.00922
           X6           0.21303   0.13802   0.02581  -0.01044  -0.00904
           Y6          -0.24857  -0.11204   0.02925  -0.01133  -0.01495
           Z6          -0.13341  -0.07941  -0.00426   0.00411   0.00259
                          X6        Y6        Z6
           X6           0.24923
           Y6          -0.20631   0.26023
           Z6          -0.13350   0.12877   0.07694
 ITU=  0  0 -1  0
     Eigenvalues ---   -0.00411  -0.00013   0.00000   0.00000   0.01539
     Eigenvalues ---    0.03610   0.15042   0.15935   0.81238   0.85622
     Eigenvalues ---    1.07883   1.10964
 RFO step:  Lambda=-4.37206318D-03 EMin=-4.11057165D-03
 I=     1 Eig=   -4.11D-03 Dot1= -3.92D-04
 I=     1 Stepn= -3.75D-01 RXN=   3.75D-01 EDone=F
 I=     2 Eig=   -1.31D-04 Dot1= -4.14D-06
 I=     2 Stepn= -1.88D-01 RXN=   4.19D-01 EDone=F
 Mixed    2 eigenvectors in step.  Raw Step.Grad=  3.96D-04.
 RFO eigenvector is Hessian eigenvector with negative curvature.
 Taking step of  4.19D-01 in eigenvector direction(s).  Step.Grad= -1.16D-04.
 Quartic linear search produced a step of -0.27169.
 Maximum step size (   0.150) exceeded in Quadratic search.
    -- Step size scaled by   0.358
 TrRot= -0.001302  0.007552 -0.001639 -1.153602 -0.006372  1.157168
 Variable       Old X    -DE/DX   Delta X   Delta X   Delta X     New X
                                 (Linear)    (Quad)   (Total)
    X1        2.70871  -0.00101   0.00171   0.03674   0.03667   2.74538
    Y1       -0.05809   0.00380   0.00200   0.03023   0.05081  -0.00728
    Z1        0.19361  -0.00546   0.00237   0.01234   0.02025   0.21387
    X2        0.85394   0.00171   0.00035   0.02273   0.02132   0.87526
    Y2        0.14578  -0.00234  -0.01408  -0.08275  -0.08551   0.06027
    Z2        0.13836   0.00063   0.01504  -0.04308  -0.02771   0.11065
    X3        3.47956  -0.00077  -0.01961   0.04000   0.02040   3.49996
    Y3        0.59492  -0.00215  -0.00270   0.00979   0.01929   0.61421
    Z3       -1.34508   0.00458  -0.00906   0.00649   0.00126  -1.34381
    X4       -2.42188  -0.00201   0.00692  -0.04166  -0.03586  -2.45774
    Y4       -0.00522  -0.00307   0.01033  -0.00654   0.00222  -0.00300
    Z4       -0.03907   0.00004   0.00308  -0.02382  -0.02867  -0.06774
    X5       -3.18816   0.00195   0.01941  -0.06521  -0.04085  -3.22901
    Y5       -1.67628   0.00515   0.00401   0.00208   0.00149  -1.67479
    Z5       -0.12973   0.00051  -0.00633   0.02723   0.02072  -0.10901
    X6       -3.58307   0.00014  -0.00878   0.01453  -0.00168  -3.58475
    Y6        1.26110  -0.00139   0.00044   0.01286   0.01170   1.27280
    Z6        0.59708  -0.00028  -0.00509   0.03748   0.01414   0.61121
         Item               Value     Threshold  Converged?
 Maximum Force            0.005464     0.000450     NO 
 RMS     Force            0.002649     0.000300     NO 
 Maximum Displacement     0.085511     0.001800     NO 
 RMS     Displacement     0.031810     0.001200     NO 
 Predicted change in Energy=-2.082828D-04
 GradGradGradGradGradGradGradGradGradGradGradGradGradGradGradGradGradGrad

                          Input orientation:                          
 ---------------------------------------------------------------------
 Center     Atomic      Atomic             Coordinates (Angstroms)
 Number     Number       Type             X           Y           Z
 ---------------------------------------------------------------------
      1          8           0        1.452795   -0.003852    0.113173
      2          1           0        0.463165    0.031892    0.058552
      3          1           0        1.852099    0.325026   -0.711114
      4          8           0       -1.300581   -0.001587   -0.035845
      5          1           0       -1.708717   -0.886259   -0.057684
      6          1           0       -1.896966    0.673538    0.323441
 ---------------------------------------------------------------------
                    Distance matrix (angstroms):
                    1          2          3          4          5
     1  O    0.000000
     2  H    0.991780   0.000000
     3  H    0.973167   1.614760   0.000000
     4  O    2.757406   1.766587   3.240687   0.000000
     5  H    3.286791   2.360844   3.817538   0.974524   0.000000
     6  H    3.424028   2.460100   3.904773   0.969822   1.616682
                    6
     6  H    0.000000
 Stoichiometry    H4O2
 Framework group  C1[X(H4O2)]
 Deg. of freedom    12
 Full point group                 C1      NOp   1
 Largest Abelian subgroup         C1      NOp   1
 Largest concise Abelian subgroup C1      NOp   1
                         Standard orientation:                         
 ---------------------------------------------------------------------
 Center     Atomic      Atomic             Coordinates (Angstroms)
 Number     Number       Type             X           Y           Z
 ---------------------------------------------------------------------
      1          8           0        1.455622    0.032793   -0.108051
      2          1           0        0.467124   -0.020034   -0.047145
      3          1           0        1.864129   -0.235359    0.733537
      4          8           0       -1.296656   -0.017398    0.052371
      5          1           0       -1.723237    0.858221    0.020457
      6          1           0       -1.879749   -0.725988   -0.261407
 ---------------------------------------------------------------------
 Rotational constants (GHZ):    236.0145766      7.0330581      6.9792487
 Standard basis: SDDAll (6D, 10F)
 There are    30 symmetry adapted cartesian basis functions of A   symmetry.
 There are    30 symmetry adapted basis functions of A   symmetry.
    30 basis functions,    54 primitive gaussians,    30 cartesian basis functions
     8 alpha electrons        8 beta electrons
       nuclear repulsion energy        25.9434727958 Hartrees.
 NAtoms=    6 NActive=    6 NUniq=    6 SFac= 1.00D+00 NAtFMM=   60 NAOKFM=F Big=F
 Integral buffers will be    131072 words long.
 Raffenetti 2 integral format.
 Two-electron integral symmetry is turned on.
 One-electron integrals computed using PRISM.
   1 Symmetry operations used in ECPInt.
 ECPInt:  NShTT=     171 NPrTT=     619 LenC2=     172 LenP2D=     564.
 LDataN:  DoStor=T MaxTD1= 4 Len=   56
 NBasis=    30 RedAO= T EigKep=  3.64D-02  NBF=    30
 NBsUse=    30 1.00D-06 EigRej= -1.00D+00 NBFU=    30
 Initial guess from the checkpoint file:  "/tmp/Gau-28105.chk"
 B after Tr=     0.000000    0.000000    0.000000
         Rot=    0.999948    0.010155    0.000538   -0.000563 Ang=   1.17 deg.
 ExpMin= 7.02D-02 ExpMax= 4.71D+01 ExpMxC= 4.71D+01 IAcc=2 IRadAn=         4 AccDes= 0.00D+00
 Harris functional with IExCor= 1009 and IRadAn=       4 diagonalized for initial guess.
 HarFok:  IExCor= 1009 AccDes= 0.00D+00 IRadAn=         4 IDoV= 1 UseB2=F ITyADJ=14
 ICtDFT=  3500011 ScaDFX=  1.000000  1.000000  1.000000  1.000000
 FoFCou: FMM=F IPFlag=           0 FMFlag=      100000 FMFlg1=           0
         NFxFlg=           0 DoJE=T BraDBF=F KetDBF=T FulRan=T
         wScrn=  0.000000 ICntrl=     500 IOpCl=  0 I1Cent=   200000004 NGrid=           0
         NMat0=    1 NMatS0=      1 NMatT0=    0 NMatD0=    1 NMtDS0=    0 NMtDT0=    0
 Petite list used in FoFCou.
 Keep R1 ints in memory in canonical form, NReq=1237769.
 Requested convergence on RMS density matrix=1.00D-08 within 512 cycles.
 Requested convergence on MAX density matrix=1.00D-06.
 Requested convergence on             energy=1.00D-06.
 No special actions if energy rises.
 Integral accuracy reduced to 1.0D-05 until final iterations.
 Initial convergence to 1.0D-05 achieved.  Increase integral accuracy.
 SCF Done:  E(RPBE1PBE) =  -34.4136693199     A.U. after   11 cycles
            NFock= 11  Conv=0.38D-08     -V/T= 2.2671
   1 Symmetry operations used in ECPInt.
 ECPInt:  NShTT=     171 NPrTT=     619 LenC2=     172 LenP2D=     564.
 LDataN:  DoStor=T MaxTD1= 5 Len=  102
 Calling FoFJK, ICntrl=      2127 FMM=F ISym2X=0 I1Cent= 0 IOpClX= 0 NMat=1 NMatS=1 NMatT=0.
 ***** Axes restored to original set *****
 -------------------------------------------------------------------
 Center     Atomic                   Forces (Hartrees/Bohr)
 Number     Number              X              Y              Z
 -------------------------------------------------------------------
      1        8          -0.006032586    0.002043548   -0.005161721
      2        1           0.005112469   -0.000005577    0.001267841
      3        1          -0.000455683   -0.001562792    0.003793836
      4        8          -0.000469241   -0.004737100    0.000053340
      5        1           0.001318732    0.005843790    0.000425908
      6        1           0.000526309   -0.001581869   -0.000379204
 -------------------------------------------------------------------
 Cartesian Forces:  Max     0.006032586 RMS     0.003106052

 GradGradGradGradGradGradGradGradGradGradGradGradGradGradGradGradGradGrad
 Berny optimization.
 Search for a local minimum.
 Step number   5 out of a maximum of  100
 All quantities printed in internal units (Hartrees-Bohrs-Radians)
 Update second derivatives using D2CorN and points    2    1    3    5    4

 The second derivative matrix:
                          X1        Y1        Z1        X2        Y2
           X1           0.60907
           Y1          -0.00132   0.10373
           Z1          -0.12818  -0.19809   0.45883
           X2          -0.49751   0.04533   0.01590   0.49647
           Y2           0.05387  -0.03091   0.02040  -0.04218   0.03336
           Z2          -0.02521   0.02609  -0.06539  -0.01134  -0.01260
           X3          -0.09908  -0.04438   0.11556  -0.00459  -0.01314
           Y3          -0.05601  -0.08025   0.18062  -0.00163   0.00753
           Z3           0.14920   0.17386  -0.40218   0.00050  -0.00760
           X4          -0.00924   0.00607   0.00536  -0.00713  -0.00423
           Y4          -0.00086   0.00852  -0.00168  -0.00160  -0.01010
           Z4           0.00126  -0.00116   0.00977  -0.00445  -0.00076
           X5          -0.00395   0.00167  -0.00745   0.00838  -0.00268
           Y5           0.00316  -0.00329  -0.00209   0.00277   0.00216
           Z5           0.00216  -0.00122  -0.00126   0.00043   0.00117
           X6           0.00071  -0.00737  -0.00119   0.00438   0.00835
           Y6           0.00115   0.00220   0.00083  -0.00268  -0.00203
           Z6           0.00077   0.00051   0.00024  -0.00105  -0.00059
                          Z2        X3        Y3        Z3        X4
           Z2           0.05393
           X3           0.03614   0.10691
           Y3          -0.01252   0.06037   0.07509
           Z3           0.01762  -0.15203  -0.16973   0.38904
           X4          -0.01650   0.00065  -0.00537   0.00087   0.42755
           Y4          -0.00473  -0.00106  -0.00314   0.00308  -0.01730
           Z4          -0.00936  -0.00073   0.00089  -0.00342  -0.14251
           X5           0.00861  -0.00438  -0.00062   0.00360  -0.13047
           Y5           0.00756  -0.00288   0.00159  -0.00038  -0.15664
           Z5           0.00351   0.00039   0.00083  -0.00057   0.01633
           X6           0.00829   0.00050   0.00327  -0.00213  -0.28136
           Y6          -0.00380   0.00109  -0.00082   0.00077   0.17746
           Z6          -0.00031   0.00068  -0.00009  -0.00049   0.13644
                          Y4        Z4        X5        Y5        Z5
           Y4           0.69720
           Z4           0.13966   0.09496
           X5          -0.19154   0.00943   0.10475
           Y5          -0.44414  -0.02717   0.16374   0.45496
           Z5          -0.00297  -0.01349  -0.01074   0.01724   0.00940
           X6           0.21236   0.13700   0.02566  -0.01015  -0.00858
           Y6          -0.24834  -0.11146   0.02943  -0.01127  -0.01505
           Z6          -0.13338  -0.07846  -0.00346   0.00484   0.00241
                          X6        Y6        Z6
           X6           0.25010
           Y6          -0.20645   0.26025
           Z6          -0.13339   0.12871   0.07661
 ITU=  0  0  0 -1  0
 Energy rises -- skip Quadratic search.
 Quartic linear search produced a step of -0.52628.
 TrRot=  0.000000  0.000000  0.000000  0.000000  0.000000  0.000000
 Variable       Old X    -DE/DX   Delta X   Delta X   Delta X     New X
                                 (Linear)    (Quad)   (Total)
    X1        2.74538  -0.00603  -0.01930   0.00000  -0.01930   2.72609
    Y1       -0.00728   0.00204  -0.02674   0.00000  -0.02674  -0.03402
    Z1        0.21387  -0.00516  -0.01066   0.00000  -0.01066   0.20321
    X2        0.87526   0.00511  -0.01122   0.00000  -0.01122   0.86404
    Y2        0.06027  -0.00001   0.04500   0.00000   0.04500   0.10527
    Z2        0.11065   0.00127   0.01458   0.00000   0.01458   0.12523
    X3        3.49996  -0.00046  -0.01074   0.00000  -0.01074   3.48922
    Y3        0.61421  -0.00156  -0.01015   0.00000  -0.01015   0.60406
    Z3       -1.34381   0.00379  -0.00067   0.00000  -0.00067  -1.34448
    X4       -2.45774  -0.00047   0.01887   0.00000   0.01887  -2.43887
    Y4       -0.00300  -0.00474  -0.00117   0.00000  -0.00117  -0.00417
    Z4       -0.06774   0.00005   0.01509   0.00000   0.01509  -0.05265
    X5       -3.22901   0.00132   0.02150   0.00000   0.02150  -3.20751
    Y5       -1.67479   0.00584  -0.00079   0.00000  -0.00079  -1.67557
    Z5       -0.10901   0.00043  -0.01091   0.00000  -0.01091  -0.11991
    X6       -3.58475   0.00053   0.00088   0.00000   0.00088  -3.58386
    Y6        1.27280  -0.00158  -0.00616   0.00000  -0.00616   1.26664
    Z6        0.61121  -0.00038  -0.00744   0.00000  -0.00744   0.60377
         Item               Value     Threshold  Converged?
 Maximum Force            0.006033     0.000450     NO 
 RMS     Force            0.003106     0.000300     NO 
 Maximum Displacement     0.045002     0.001800     NO 
 RMS     Displacement     0.016741     0.001200     NO 
 Predicted change in Energy=-5.066386D-05
 GradGradGradGradGradGradGradGradGradGradGradGradGradGradGradGradGradGrad

                          Input orientation:                          
 ---------------------------------------------------------------------
 Center     Atomic      Atomic             Coordinates (Angstroms)
 Number     Number       Type             X           Y           Z
 ---------------------------------------------------------------------
      1          8           0        1.442583   -0.018003    0.107533
      2          1           0        0.457229    0.055706    0.066269
      3          1           0        1.846418    0.319655   -0.711466
      4          8           0       -1.290594   -0.002204   -0.027861
      5          1           0       -1.697341   -0.886675   -0.063455
      6          1           0       -1.896498    0.670279    0.319504
 ---------------------------------------------------------------------
                    Distance matrix (angstroms):
                    1          2          3          4          5
     1  O    0.000000
     2  H    0.988968   0.000000
     3  H    0.973579   1.613812   0.000000
     4  O    2.736574   1.751313   3.226725   0.000000
     5  H    3.262353   2.355224   3.799128   0.974165   0.000000
     6  H    3.415864   2.445784   3.898110   0.969544   1.615681
                    6
     6  H    0.000000
 Stoichiometry    H4O2
 Framework group  C1[X(H4O2)]
 Deg. of freedom    12
 Full point group                 C1      NOp   1
 Largest Abelian subgroup         C1      NOp   1
 Largest concise Abelian subgroup C1      NOp   1
                         Standard orientation:                         
 ---------------------------------------------------------------------
 Center     Atomic      Atomic             Coordinates (Angstroms)
 Number     Number       Type             X           Y           Z
 ---------------------------------------------------------------------
      1          8           0        1.445141    0.036568   -0.106642
      2          1           0        0.461479   -0.051129   -0.053945
      3          1           0        1.859928   -0.246441    0.727452
      4          8           0       -1.286443   -0.017162    0.049562
      5          1           0       -1.708058    0.860952    0.037140
      6          1           0       -1.882935   -0.718628   -0.254014
 ---------------------------------------------------------------------
 Rotational constants (GHZ):    237.5370453      7.1312908      7.0736537
 Standard basis: SDDAll (6D, 10F)
 There are    30 symmetry adapted cartesian basis functions of A   symmetry.
 There are    30 symmetry adapted basis functions of A   symmetry.
    30 basis functions,    54 primitive gaussians,    30 cartesian basis functions
     8 alpha electrons        8 beta electrons
       nuclear repulsion energy        26.0383905727 Hartrees.
 NAtoms=    6 NActive=    6 NUniq=    6 SFac= 1.00D+00 NAtFMM=   60 NAOKFM=F Big=F
 Integral buffers will be    131072 words long.
 Raffenetti 2 integral format.
 Two-electron integral symmetry is turned on.
 One-electron integrals computed using PRISM.
   1 Symmetry operations used in ECPInt.
 ECPInt:  NShTT=     171 NPrTT=     619 LenC2=     172 LenP2D=     564.
 LDataN:  DoStor=T MaxTD1= 4 Len=   56
 NBasis=    30 RedAO= T EigKep=  3.56D-02  NBF=    30
 NBsUse=    30 1.00D-06 EigRej= -1.00D+00 NBFU=    30
 Lowest energy guess from the checkpoint file:  "/tmp/Gau-28105.chk"
 B after Tr=     0.000000    0.000000    0.000000
         Rot=    0.999990    0.004541    0.000255   -0.000269 Ang=   0.52 deg.
 B after Tr=     0.000000    0.000000    0.000000
         Rot=    0.999984   -0.005609   -0.000284    0.000294 Ang=  -0.64 deg.
 Keep R1 ints in memory in canonical form, NReq=1237769.
 Requested convergence on RMS density matrix=1.00D-08 within 512 cycles.
 Requested convergence on MAX density matrix=1.00D-06.
 Requested convergence on             energy=1.00D-06.
 No special actions if energy rises.
 Integral accuracy reduced to 1.0D-05 until final iterations.
 Initial convergence to 1.0D-05 achieved.  Increase integral accuracy.
 SCF Done:  E(RPBE1PBE) =  -34.4137306203     A.U. after    8 cycles
            NFock=  8  Conv=0.56D-08     -V/T= 2.2667
   1 Symmetry operations used in ECPInt.
 ECPInt:  NShTT=     171 NPrTT=     619 LenC2=     172 LenP2D=     564.
 LDataN:  DoStor=T MaxTD1= 5 Len=  102
 Calling FoFJK, ICntrl=      2127 FMM=F ISym2X=0 I1Cent= 0 IOpClX= 0 NMat=1 NMatS=1 NMatT=0.
 ***** Axes restored to original set *****
 -------------------------------------------------------------------
 Center     Atomic                   Forces (Hartrees/Bohr)
 Number     Number              X              Y              Z
 -------------------------------------------------------------------
      1        8          -0.002818584    0.002961564   -0.005234162
      2        1           0.002741134   -0.001227034    0.000859732
      3        1          -0.000647998   -0.001858757    0.004192678
      4        8          -0.001133129   -0.003877974    0.000004901
      5        1           0.001601711    0.005421436    0.000470249
      6        1           0.000256867   -0.001419235   -0.000293398
 -------------------------------------------------------------------
 Cartesian Forces:  Max     0.005421436 RMS     0.002645660

 GradGradGradGradGradGradGradGradGradGradGradGradGradGradGradGradGradGrad
 Berny optimization.
 Search for a local minimum.
 Step number   6 out of a maximum of  100
 All quantities printed in internal units (Hartrees-Bohrs-Radians)
 Update second derivatives using D2CorN and points    2    1    3    4    6

 The second derivative matrix:
                          X1        Y1        Z1        X2        Y2
           X1           0.61118
           Y1           0.00039   0.10379
           Z1          -0.12828  -0.19868   0.45840
           X2          -0.49780   0.04419   0.01488   0.49546
           Y2           0.05156  -0.03091   0.02155  -0.04011   0.03301
           Z2          -0.02618   0.02648  -0.06512  -0.01030  -0.01325
           X3          -0.09833  -0.04463   0.11506  -0.00546  -0.01249
           Y3          -0.05594  -0.08065   0.18000  -0.00252   0.00845
           Z3           0.14987   0.17426  -0.40208   0.00071  -0.00831
           X4          -0.01194   0.00488   0.00599  -0.00750  -0.00265
           Y4          -0.00068   0.00923  -0.00136  -0.00147  -0.01114
           Z4           0.00082  -0.00144   0.01079  -0.00343  -0.00100
           X5          -0.00427   0.00247  -0.00627   0.01056  -0.00456
           Y5           0.00356  -0.00344  -0.00210   0.00321   0.00213
           Z5           0.00277  -0.00115  -0.00184  -0.00019   0.00136
           X6           0.00116  -0.00730  -0.00137   0.00474   0.00825
           Y6           0.00110   0.00198   0.00059  -0.00331  -0.00154
           Z6           0.00101   0.00054  -0.00016  -0.00167  -0.00036
                          Z2        X3        Y3        Z3        X4
           Z2           0.05375
           X3           0.03624   0.10689
           Y3          -0.01219   0.05990   0.07441
           Z3           0.01747  -0.15173  -0.16950   0.38910
           X4          -0.01632  -0.00052  -0.00583  -0.00006   0.43237
           Y4          -0.00537  -0.00074  -0.00295   0.00315  -0.01713
           Z4          -0.00944  -0.00027   0.00192  -0.00403  -0.14019
           X5           0.00814  -0.00341   0.00093   0.00317  -0.12963
           Y5           0.00801  -0.00277   0.00198  -0.00042  -0.15699
           Z5           0.00364   0.00024   0.00035  -0.00021   0.01485
           X6           0.00843   0.00082   0.00346  -0.00196  -0.28278
           Y6          -0.00368   0.00073  -0.00124   0.00082   0.17772
           Z6          -0.00030   0.00046  -0.00058  -0.00026   0.13573
                          Y4        Z4        X5        Y5        Z5
           Y4           0.69714
           Z4           0.13968   0.09324
           X5          -0.19217   0.00684   0.10131
           Y5          -0.44415  -0.02850   0.16302   0.45463
           Z5          -0.00285  -0.01294  -0.00953   0.01776   0.00926
           X6           0.21218   0.13623   0.02543  -0.01002  -0.00813
           Y6          -0.24813  -0.11066   0.03032  -0.01114  -0.01546
           Z6          -0.13325  -0.07761  -0.00234   0.00525   0.00210
                          X6        Y6        Z6
           X6           0.25063
           Y6          -0.20656   0.26008
           Z6          -0.13319   0.12839   0.07624
 ITU=  0  0  0  0 -1  0
     Eigenvalues ---   -0.00265  -0.00122  -0.00001   0.00765   0.02482
     Eigenvalues ---    0.03750   0.15044   0.15989   0.81238   0.85747
     Eigenvalues ---    1.07954   1.10800
 RFO step:  Lambda=-2.65437248D-03 EMin=-2.65340391D-03
 I=     1 Eig=   -2.65D-03 Dot1= -1.76D-05
 I=     1 Stepn= -3.75D-01 RXN=   3.75D-01 EDone=F
 I=     2 Eig=   -1.22D-03 Dot1=  9.72D-05
 I=     2 Stepn=  1.88D-01 RXN=   4.19D-01 EDone=F
 Mixed    2 eigenvectors in step.  Raw Step.Grad=  1.15D-04.
 RFO eigenvector is Hessian eigenvector with negative curvature.
 Taking step of  4.19D-01 in eigenvector direction(s).  Step.Grad=  3.81D-04.
 Quartic linear search produced a step of -0.00003.
 Maximum step size (   0.150) exceeded in Quadratic search.
    -- Step size scaled by   0.358
 TrRot=  0.002157 -0.004077 -0.001819 -1.280557 -0.002497  1.282971
 Variable       Old X    -DE/DX   Delta X   Delta X   Delta X     New X
                                 (Linear)    (Quad)   (Total)
    X1        2.72609  -0.00282   0.00000  -0.01298  -0.01091   2.71518
    Y1       -0.03402   0.00296   0.00000   0.00668   0.00964  -0.02438
    Z1        0.20321  -0.00523   0.00000  -0.00039  -0.00023   0.20298
    X2        0.86404   0.00274   0.00000  -0.01666  -0.01473   0.84930
    Y2        0.10527  -0.00123   0.00000  -0.04872  -0.05046   0.05481
    Z2        0.12523   0.00086   0.00000  -0.00318  -0.00453   0.12070
    X3        3.48922  -0.00065   0.00000  -0.02440  -0.02290   3.46632
    Y3        0.60406  -0.00186   0.00000   0.05586   0.05697   0.66103
    Z3       -1.34448   0.00419   0.00000   0.01652   0.01558  -1.32890
    X4       -2.43887  -0.00113   0.00000   0.02171   0.02399  -2.41488
    Y4       -0.00417  -0.00388   0.00000  -0.02810  -0.03816  -0.04233
    Z4       -0.05265   0.00000   0.00000  -0.00867  -0.01213  -0.06478
    X5       -3.20751   0.00160   0.00000  -0.06649  -0.06023  -3.26774
    Y5       -1.67557   0.00542   0.00000   0.00560  -0.00660  -1.68217
    Z5       -0.11991   0.00047   0.00000   0.02445   0.02431  -0.09560
    X6       -3.58386   0.00026   0.00000   0.08618   0.08478  -3.49909
    Y6        1.26664  -0.00142   0.00000   0.03973   0.02861   1.29525
    Z6        0.60377  -0.00029   0.00000  -0.01558  -0.02301   0.58077
         Item               Value     Threshold  Converged?
 Maximum Force            0.005421     0.000450     NO 
 RMS     Force            0.002646     0.000300     NO 
 Maximum Displacement     0.084777     0.001800     NO 
 RMS     Displacement     0.034949     0.001200     NO 
 Predicted change in Energy=-6.615772D-05
 GradGradGradGradGradGradGradGradGradGradGradGradGradGradGradGradGradGrad

                          Input orientation:                          
 ---------------------------------------------------------------------
 Center     Atomic      Atomic             Coordinates (Angstroms)
 Number     Number       Type             X           Y           Z
 ---------------------------------------------------------------------
      1          8           0        1.436809   -0.012903    0.107413
      2          1           0        0.449432    0.029004    0.063871
      3          1           0        1.834299    0.349804   -0.703222
      4          8           0       -1.277897   -0.022400   -0.034279
      5          1           0       -1.729211   -0.890167   -0.050589
      6          1           0       -1.851636    0.685418    0.307330
 ---------------------------------------------------------------------
                    Distance matrix (angstroms):
                    1          2          3          4          5
     1  O    0.000000
     2  H    0.989225   0.000000
     3  H    0.972977   1.615302   0.000000
     4  O    2.718418   1.730879   3.204962   0.000000
     5  H    3.289110   2.367375   3.829107   0.978248   0.000000
     6  H    3.367713   2.405217   3.836661   0.973077   1.620358
                    6
     6  H    0.000000
 Stoichiometry    H4O2
 Framework group  C1[X(H4O2)]
 Deg. of freedom    12
 Full point group                 C1      NOp   1
 Largest Abelian subgroup         C1      NOp   1
 Largest concise Abelian subgroup C1      NOp   1
                         Standard orientation:                         
 ---------------------------------------------------------------------
 Center     Atomic      Atomic             Coordinates (Angstroms)
 Number     Number       Type             X           Y           Z
 ---------------------------------------------------------------------
      1          8           0        1.437001    0.043485   -0.103883
      2          1           0        0.451252   -0.023532   -0.055164
      3          1           0        1.847167   -0.294280    0.711201
      4          8           0       -1.276421   -0.015729    0.049846
      5          1           0       -1.750338    0.840053    0.052940
      6          1           0       -1.832717   -0.744284   -0.276686
 ---------------------------------------------------------------------
 Rotational constants (GHZ):    235.8147401      7.2232255      7.1591025
 Standard basis: SDDAll (6D, 10F)
 There are    30 symmetry adapted cartesian basis functions of A   symmetry.
 There are    30 symmetry adapted basis functions of A   symmetry.
    30 basis functions,    54 primitive gaussians,    30 cartesian basis functions
     8 alpha electrons        8 beta electrons
       nuclear repulsion energy        26.0963631604 Hartrees.
 NAtoms=    6 NActive=    6 NUniq=    6 SFac= 1.00D+00 NAtFMM=   60 NAOKFM=F Big=F
 Integral buffers will be    131072 words long.
 Raffenetti 2 integral format.
 Two-electron integral symmetry is turned on.
 One-electron integrals computed using PRISM.
   1 Symmetry operations used in ECPInt.
 ECPInt:  NShTT=     171 NPrTT=     619 LenC2=     172 LenP2D=     564.
 LDataN:  DoStor=T MaxTD1= 4 Len=   56
[...]
           Z6          -0.12482   0.13466   0.07823
 ITU=  0  0  0  0  0  0  0  1  1  1  0  1  0  0  0  0  0  0  0
     Eigenvalues ---    0.00132   0.00360   0.00636   0.01155   0.02462
     Eigenvalues ---    0.04186   0.15164   0.17367   0.76433   0.86789
     Eigenvalues ---    1.08224   1.10066
 RFO step:  Lambda=-3.13033929D-08 EMin= 1.31557244D-03
 Skip linear search -- no minimum in search direction.
 TrRot=  0.000013  0.000353  0.000121  0.000077 -0.000036  0.000077
 Variable       Old X    -DE/DX   Delta X   Delta X   Delta X     New X
                                 (Linear)    (Quad)   (Total)
    X1        2.68621   0.00000   0.00000  -0.00004  -0.00005   2.68616
    Y1        0.10373   0.00000   0.00000   0.00161   0.00238   0.10610
    Z1        0.23779   0.00000   0.00000   0.00043   0.00064   0.23844
    X2        0.83419  -0.00001   0.00000   0.00004   0.00004   0.83423
    Y2        0.06158   0.00001   0.00000  -0.00005   0.00043   0.06202
    Z2        0.05676   0.00001   0.00000   0.00020   0.00035   0.05710
    X3        3.51981   0.00001   0.00000  -0.00001  -0.00004   3.51977
    Y3        0.56774   0.00000   0.00000  -0.00286  -0.00196   0.56578
    Z3       -1.32264  -0.00001   0.00000  -0.00090  -0.00065  -1.32329
    X4       -2.42989  -0.00002   0.00000   0.00008   0.00010  -2.42979
    Y4       -0.06293   0.00000   0.00000  -0.00037  -0.00040  -0.06333
    Z4       -0.08511   0.00001   0.00000   0.00002   0.00005  -0.08506
    X5       -3.30575   0.00000   0.00000  -0.00113  -0.00085  -3.30660
    Y5       -1.66931   0.00001   0.00000   0.00032   0.00016  -1.66915
    Z5       -0.12370   0.00000   0.00000  -0.00183  -0.00183  -0.12552
    X6       -3.45547   0.00001   0.00000   0.00101   0.00080  -3.45467
    Y6        1.26140  -0.00002   0.00000  -0.00043  -0.00061   1.26079
    Z6        0.65207   0.00000   0.00000   0.00144   0.00144   0.65350
         Item               Value     Threshold  Converged?
 Maximum Force            0.000016     0.000450     YES
 RMS     Force            0.000009     0.000300     YES
 Maximum Displacement     0.002375     0.001800     NO 
 RMS     Displacement     0.000999     0.001200     YES
 Predicted change in Energy=-2.041574D-08
 GradGradGradGradGradGradGradGradGradGradGradGradGradGradGradGradGradGrad

                          Input orientation:                          
 ---------------------------------------------------------------------
 Center     Atomic      Atomic             Coordinates (Angstroms)
 Number     Number       Type             X           Y           Z
 ---------------------------------------------------------------------
      1          8           0        1.421456    0.056146    0.126176
      2          1           0        0.441455    0.032818    0.030218
      3          1           0        1.862581    0.299400   -0.700257
      4          8           0       -1.285787   -0.033511   -0.045010
      5          1           0       -1.749775   -0.883277   -0.066423
      6          1           0       -1.828133    0.667182    0.345818
 ---------------------------------------------------------------------
                    Distance matrix (angstroms):
                    1          2          3          4          5
     1  O    0.000000
     2  H    0.984964   0.000000
     3  H    0.967861   1.619956   0.000000
     4  O    2.714131   1.730152   3.233017   0.000000
     5  H    3.313052   2.376985   3.853516   0.968424   0.000000
     6  H    3.313824   2.377614   3.853687   0.968429   1.606239
                    6
     6  H    0.000000
 Stoichiometry    H4O2
 Framework group  C1[X(H4O2)]
 Deg. of freedom    12
 Full point group                 C1      NOp   1
 Largest Abelian subgroup         C1      NOp   1
 Largest concise Abelian subgroup C1      NOp   1
                         Standard orientation:                         
 ---------------------------------------------------------------------
 Center     Atomic      Atomic             Coordinates (Angstroms)
 Number     Number       Type             X           Y           Z
 ---------------------------------------------------------------------
      1          8           0        1.431467    0.000390   -0.113376
      2          1           0        0.451262    0.000030   -0.016674
      3          1           0        1.881899   -0.002750    0.743277
      4          8           0       -1.277340   -0.000169    0.056547
      5          1           0       -1.782681    0.803591   -0.134362
      6          1           0       -1.783495   -0.802645   -0.137604
 ---------------------------------------------------------------------
 Rotational constants (GHZ):    241.1565078      7.2342321      7.1823580
 Standard basis: SDDAll (6D, 10F)
 There are    30 symmetry adapted cartesian basis functions of A   symmetry.
 There are    30 symmetry adapted basis functions of A   symmetry.
    30 basis functions,    54 primitive gaussians,    30 cartesian basis functions
     8 alpha electrons        8 beta electrons
       nuclear repulsion energy        26.1897795545 Hartrees.
 NAtoms=    6 NActive=    6 NUniq=    6 SFac= 1.00D+00 NAtFMM=   60 NAOKFM=F Big=F
 Integral buffers will be    131072 words long.
 Raffenetti 2 integral format.
 Two-electron integral symmetry is turned on.
 One-electron integrals computed using PRISM.
   1 Symmetry operations used in ECPInt.
 ECPInt:  NShTT=     171 NPrTT=     619 LenC2=     172 LenP2D=     566.
 LDataN:  DoStor=T MaxTD1= 4 Len=   56
 NBasis=    30 RedAO= T EigKep=  3.45D-02  NBF=    30
 NBsUse=    30 1.00D-06 EigRej= -1.00D+00 NBFU=    30
 Initial guess from the checkpoint file:  "/tmp/Gau-28105.chk"
 B after Tr=     0.000000    0.000000    0.000000
         Rot=    0.999995    0.003192    0.000001   -0.000030 Ang=   0.37 deg.
 Keep R1 ints in memory in canonical form, NReq=1237769.
 Requested convergence on RMS density matrix=1.00D-08 within 512 cycles.
 Requested convergence on MAX density matrix=1.00D-06.
 Requested convergence on             energy=1.00D-06.
 No special actions if energy rises.
 SCF Done:  E(RPBE1PBE) =  -34.4139095969     A.U. after    6 cycles
            NFock=  6  Conv=0.87D-08     -V/T= 2.2648
   1 Symmetry operations used in ECPInt.
 ECPInt:  NShTT=     171 NPrTT=     619 LenC2=     172 LenP2D=     566.
 LDataN:  DoStor=T MaxTD1= 5 Len=  102
 Calling FoFJK, ICntrl=      2127 FMM=F ISym2X=0 I1Cent= 0 IOpClX= 0 NMat=1 NMatS=1 NMatT=0.
 ***** Axes restored to original set *****
 -------------------------------------------------------------------
 Center     Atomic                   Forces (Hartrees/Bohr)
 Number     Number              X              Y              Z
 -------------------------------------------------------------------
      1        8           0.000012546   -0.000000367   -0.000005435
      2        1          -0.000017992    0.000006149    0.000005425
      3        1           0.000007424    0.000000122   -0.000002508
      4        8          -0.000023232   -0.000004019    0.000007652
      5        1           0.000005614    0.000017214    0.000001974
      6        1           0.000015639   -0.000019100   -0.000007107
 -------------------------------------------------------------------
 Cartesian Forces:  Max     0.000023232 RMS     0.000011169

 GradGradGradGradGradGradGradGradGradGradGradGradGradGradGradGradGradGrad
 Berny optimization.
 Search for a local minimum.
 Step number  25 out of a maximum of  100
 All quantities printed in internal units (Hartrees-Bohrs-Radians)
 Update second derivatives using D2CorN and points    6    9    8   11   10
                                                         12   13   14   15   16

                                                         18   17   19   20   21

                                                         22   25
 DE= -5.93D-09 DEPred=-2.04D-08 R= 2.91D-01
 Trust test= 2.91D-01 RLast= 4.24D-03 DXMaxT set to 1.53D-01
 The second derivative matrix:
                          X1        Y1        Z1        X2        Y2
           X1           0.60081
           Y1           0.03530   0.05741
           Z1          -0.13567  -0.14846   0.47104
           X2          -0.48270   0.00311   0.01246   0.49574
           Y2           0.02700  -0.02095   0.01771  -0.01410   0.03192
           Z2          -0.04421   0.01470  -0.06471   0.00779  -0.00846
           X3          -0.09557  -0.04048   0.12454  -0.01750  -0.01015
           Y3          -0.06671  -0.04546   0.14201   0.01268  -0.00034
           Z3           0.17062   0.13356  -0.41208  -0.00940  -0.00707
           X4          -0.02323   0.01532   0.00496  -0.00610  -0.00793
           Y4          -0.00390   0.01619  -0.00775   0.00272  -0.02076
           Z4          -0.00685  -0.00197  -0.00282   0.01277  -0.00081
           X5          -0.01498   0.00047  -0.01205   0.01654  -0.00392
           Y5           0.01508  -0.01832   0.00136  -0.00651   0.01000
           Z5           0.01104   0.00333  -0.01307  -0.00967  -0.00116
           X6           0.01568  -0.01372   0.00576  -0.00598   0.00910
           Y6          -0.00678   0.01113  -0.00486   0.00210   0.00012
           Z6           0.00507  -0.00117   0.02163  -0.01395  -0.00021
                          Z2        X3        Y3        Z3        X4
           Z2           0.05915
           X3           0.03872   0.11855
           Y3          -0.00634   0.05339   0.04993
           Z3           0.01250  -0.16402  -0.13681   0.40108
           X4          -0.02145  -0.00622  -0.00094   0.00750   0.44447
           Y4           0.00366  -0.00319  -0.00289   0.00166  -0.02073
           Z4          -0.00401  -0.00317  -0.00030   0.00355  -0.14593
           X5           0.00755   0.00292  -0.00336   0.00765  -0.15106
           Y5           0.00351  -0.00301   0.00358  -0.00309  -0.16914
           Z5           0.00445  -0.00215  -0.00352   0.00948   0.02202
           X6           0.01160  -0.00218   0.00494  -0.01235  -0.25786
           Y6          -0.00708   0.00343  -0.00483   0.01175   0.18341
           Z6          -0.00739   0.00608   0.00496  -0.01453   0.13291
                          Y4        Z4        X5        Y5        Z5
           Y4           0.68830
           Z4           0.15965   0.10304
           X5          -0.19097   0.00796   0.12151
           Y5          -0.42235  -0.03085   0.18114   0.45691
           Z5          -0.01287  -0.01608  -0.00598   0.02416   0.01069
           X6           0.21607   0.13523   0.02507  -0.01756  -0.01527
           Y6          -0.25850  -0.12572   0.01664  -0.02983  -0.00994
           Z6          -0.14435  -0.08368  -0.00514   0.00492   0.00453
                          X6        Y6        Z6
           X6           0.22527
           Y6          -0.19881   0.28190
           Z6          -0.12497   0.13585   0.07944
 ITU=  0  0  0  0  0  0  0  0  1  1  1  0  1  0  0  0  0  0  0
     Eigenvalues ---    0.00081   0.00286   0.00629   0.01183   0.02429
     Eigenvalues ---    0.04206   0.15466   0.17404   0.76388   0.86751
     Eigenvalues ---    1.08231   1.10291
 RFO step:  Lambda= 0.00000000D+00 EMin= 8.13934479D-04
 Quartic linear search produced a step of -0.53953.
 TrRot= -0.000044 -0.000007 -0.000029  0.000003 -0.000007  0.000003
 Variable       Old X    -DE/DX   Delta X   Delta X   Delta X     New X
                                 (Linear)    (Quad)   (Total)
    X1        2.68616   0.00001   0.00003  -0.00012  -0.00014   2.68602
    Y1        0.10610   0.00000  -0.00128   0.00003  -0.00124   0.10486
    Z1        0.23844  -0.00001  -0.00035  -0.00001  -0.00037   0.23807
    X2        0.83423  -0.00002  -0.00002  -0.00009  -0.00015   0.83407
    Y2        0.06202   0.00001  -0.00023   0.00019  -0.00004   0.06197
    Z2        0.05710   0.00001  -0.00019  -0.00036  -0.00057   0.05654
    X3        3.51977   0.00001   0.00002   0.00044   0.00042   3.52019
    Y3        0.56578   0.00000   0.00106  -0.00003   0.00104   0.56682
    Z3       -1.32329   0.00000   0.00035   0.00022   0.00057  -1.32273
    X4       -2.42979  -0.00002  -0.00005  -0.00006  -0.00016  -2.42995
    Y4       -0.06333   0.00000   0.00021  -0.00007   0.00012  -0.06320
    Z4       -0.08506   0.00001  -0.00003  -0.00012  -0.00019  -0.08525
    X5       -3.30660   0.00001   0.00046  -0.00018   0.00025  -3.30635
    Y5       -1.66915   0.00002  -0.00009   0.00001  -0.00011  -1.66926
    Z5       -0.12552   0.00000   0.00098   0.00022   0.00115  -0.12437
    X6       -3.45467   0.00002  -0.00043   0.00027  -0.00022  -3.45489
    Y6        1.26079  -0.00002   0.00033  -0.00007   0.00023   1.26102
    Z6        0.65350  -0.00001  -0.00077   0.00024  -0.00059   0.65291
         Item               Value     Threshold  Converged?
 Maximum Force            0.000023     0.000450     YES
 RMS     Force            0.000011     0.000300     YES
 Maximum Displacement     0.001243     0.001800     YES
 RMS     Displacement     0.000556     0.001200     YES
 Predicted change in Energy=-5.496200D-09
 Optimization completed.
    -- Stationary point found.
 GradGradGradGradGradGradGradGradGradGradGradGradGradGradGradGradGradGrad

                          Input orientation:                          
 ---------------------------------------------------------------------
 Center     Atomic      Atomic             Coordinates (Angstroms)
 Number     Number       Type             X           Y           Z
 ---------------------------------------------------------------------
      1          8           0        1.421456    0.056146    0.126176
      2          1           0        0.441455    0.032818    0.030218
      3          1           0        1.862581    0.299400   -0.700257
      4          8           0       -1.285787   -0.033511   -0.045010
      5          1           0       -1.749775   -0.883277   -0.066423
      6          1           0       -1.828133    0.667182    0.345818
 ---------------------------------------------------------------------
                    Distance matrix (angstroms):
                    1          2          3          4          5
     1  O    0.000000
     2  H    0.984964   0.000000
     3  H    0.967861   1.619956   0.000000
     4  O    2.714131   1.730152   3.233017   0.000000
     5  H    3.313052   2.376985   3.853516   0.968424   0.000000
     6  H    3.313824   2.377614   3.853687   0.968429   1.606239
                    6
     6  H    0.000000
 Stoichiometry    H4O2
 Framework group  C1[X(H4O2)]
 Deg. of freedom    12
 Full point group                 C1      NOp   1
 Largest Abelian subgroup         C1      NOp   1
 Largest concise Abelian subgroup C1      NOp   1
                         Standard orientation:                         
 ---------------------------------------------------------------------
 Center     Atomic      Atomic             Coordinates (Angstroms)
 Number     Number       Type             X           Y           Z
 ---------------------------------------------------------------------
      1          8           0        1.431467    0.000390   -0.113376
      2          1           0        0.451262    0.000030   -0.016674
      3          1           0        1.881899   -0.002750    0.743277
      4          8           0       -1.277340   -0.000169    0.056547
      5          1           0       -1.782681    0.803591   -0.134362
      6          1           0       -1.783495   -0.802645   -0.137604
 ---------------------------------------------------------------------
 Rotational constants (GHZ):    241.1565078      7.2342321      7.1823580

 **********************************************************************

            Population analysis using the SCF density.

 **********************************************************************

 Orbital symmetries:
       Occupied  (A) (A) (A) (A) (A) (A) (A) (A)
       Virtual   (A) (A) (A) (A) (A) (A) (A) (A) (A) (A) (A) (A)
                 (A) (A) (A) (A) (A) (A) (A) (A) (A) (A)
 The electronic state is 1-A.
 Alpha  occ. eigenvalues --   -1.08709  -1.00041  -0.60743  -0.53476  -0.42880
 Alpha  occ. eigenvalues --   -0.36800  -0.33071  -0.28577
 Alpha virt. eigenvalues --    0.02939   0.08689   0.09432   0.11986   0.15437
 Alpha virt. eigenvalues --    0.16344   0.18738   0.23285   0.24293   0.32578
 Alpha virt. eigenvalues --    0.88766   1.01306   1.09582   1.11769   1.14705
 Alpha virt. eigenvalues --    1.17206   1.19457   1.22526   1.26278   1.29627
 Alpha virt. eigenvalues --    2.00843   2.52543
          Condensed to atoms (all electrons):
               1          2          3          4          5          6
     1  O    6.314002   0.277260   0.281154  -0.018550   0.000272   0.000271
     2  H    0.277260   0.281310  -0.023549  -0.000706   0.000684   0.000685
     3  H    0.281154  -0.023549   0.359716   0.001609  -0.000013  -0.000013
     4  O   -0.018550  -0.000706   0.001609   6.314485   0.280594   0.280586
     5  H    0.000272   0.000684  -0.000013   0.280594   0.306654  -0.021685
     6  H    0.000271   0.000685  -0.000013   0.280586  -0.021685   0.306632
 Mulliken charges:
               1
     1  O   -0.854409
     2  H    0.464315
     3  H    0.381095
     4  O   -0.858018
     5  H    0.433493
     6  H    0.433523
 Sum of Mulliken charges =   0.00000
 Mulliken charges with hydrogens summed into heavy atoms:
               1
     1  O   -0.008998
     4  O    0.008998
 Electronic spatial extent (au):  <R**2>=            148.0855
 Charge=              0.0000 electrons
 Dipole moment (field-independent basis, Debye):
    X=             -4.2428    Y=             -0.0051    Z=              1.2753  Tot=              4.4303
 Quadrupole moment (field-independent basis, Debye-Ang):
   XX=             -9.1117   YY=            -11.8607   ZZ=            -14.1100
   XY=             -0.0192   XZ=              5.9431   YZ=              0.0018
 Traceless Quadrupole moment (field-independent basis, Debye-Ang):
   XX=              2.5824   YY=             -0.1665   ZZ=             -2.4159
   XY=             -0.0192   XZ=              5.9431   YZ=              0.0018
 Octapole moment (field-independent basis, Debye-Ang**2):
  XXX=            -17.7759  YYY=             -0.0004  ZZZ=              1.3551  XYY=             -7.5816
  XXY=             -0.0270  XXZ=              5.2987  XZZ=              1.2634  YZZ=             -0.0042
  YYZ=             -0.0009  XYZ=             -0.0222
 Hexadecapole moment (field-independent basis, Debye-Ang**3):
 XXXX=           -140.5915 YYYY=            -14.9375 ZZZZ=            -16.7010 XXXY=             -0.0635
 XXXZ=             22.6909 YYYX=             -0.0184 YYYZ=              0.0043 ZZZX=              5.3028
 ZZZY=             -0.0014 XXYY=            -24.6509 XXZZ=            -30.7712 YYZZ=             -5.6673
 XXYZ=              0.0052 YYXZ=              1.9637 ZZXY=             -0.0063
 N-N= 2.618977955451D+01 E-N=-1.345712578161D+02  KE= 2.720999037398D+01
 1\1\GINC-HUMAN\FOpt\RPBE1PBE\SDDAll\H4O2\HUMAN\25-Jul-2019\0\\# PBE1PB
 E/SDDAll scf=(maxcycle=512) opt=(cartesian,maxcycle=512)\\Cellular Aut
 omata job -34.4133483937\\0,1\O,1.421455594,0.0561457582,0.126176053\H
 ,0.4414550237,0.0328176557,0.0302184899\H,1.8625805269,0.29939977,-0.7
 002567369\O,-1.2857872196,-0.0335110691,-0.0450096722\H,-1.749775149,-
 0.8832767958,-0.0664231451\H,-1.8281327761,0.6671816815,0.3458180113\\
 Version=ES64L-G09RevD.01\State=1-A\HF=-34.4139096\RMSD=8.682e-09\RMSF=
 1.117e-05\Dipole=-1.6723439,0.0474149,-0.4889897\Quadrupole=1.8247398,
 -0.1156701,-1.7090697,1.2396215,-4.2751186,0.2056282\PG=C01 [X(H4O2)]\
 \@


 There was a great rattling of the words for the fewness of ideas.
                   -- Charles Baxter in Gryphon
 Job cpu time:       0 days  0 hours  2 minutes 32.7 seconds.
 File lengths (MBytes):  RWF=      5 Int=      0 D2E=      0 Chk=      1 Scr=      1
 Normal termination of Gaussian 09 at Thu Jul 25 18:22:17 2019.
