 Entering Gaussian System, Link 0=g09
 Input=Kick0007-opt.com
 Output=Kick0007-opt.log
 Initial command:
 /home/human/g09/l1.exe "/tmp/Gau-14713.inp" -scrdir="/tmp/"
 Entering Link 1 = /home/human/g09/l1.exe PID=     14715.
  
 Copyright (c) 1988,1990,1992,1993,1995,1998,2003,2009,2013,
            Gaussian, Inc.  All Rights Reserved.
  
 This is part of the Gaussian(R) 09 program.  It is based on
 the Gaussian(R) 03 system (copyright 2003, Gaussian, Inc.),
 the Gaussian(R) 98 system (copyright 1998, Gaussian, Inc.),
 the Gaussian(R) 94 system (copyright 1995, Gaussian, Inc.),
 the Gaussian 92(TM) system (copyright 1992, Gaussian, Inc.),
 the Gaussian 90(TM) system (copyright 1990, Gaussian, Inc.),
 the Gaussian 88(TM) system (copyright 1988, Gaussian, Inc.),
 the Gaussian 86(TM) system (copyright 1986, Carnegie Mellon
 University), and the Gaussian 82(TM) system (copyright 1983,
 Carnegie Mellon University). Gaussian is a federally registered
 trademark of Gaussian, Inc.
  
 This software contains proprietary and confidential information,
 including trade secrets, belonging to Gaussian, Inc.
  
 This software is provided under written license and may be
 used, copied, transmitted, or stored only in accord with that
 written license.
  
 The following legend is applicable only to US Government
 contracts under FAR:
  
                    RESTRICTED RIGHTS LEGEND
  
 Use, reproduction and disclosure by the US Government is
 subject to restrictions as set forth in subparagraphs (a)
 and (c) of the Commercial Computer Software - Restricted
 Rights clause in FAR 52.227-19.
  
 Gaussian, Inc.
 340 Quinnipiac St., Bldg. 40, Wallingford CT 06492
  
  
 ---------------------------------------------------------------
 Warning -- This program may not be used in any manner that
 competes with the business of Gaussian, Inc. or will provide
 assistance to any competitor of Gaussian, Inc.  The licensee
 of this program is prohibited from giving any competitor of
 Gaussian, Inc. access to this program.  By using this program,
 the user acknowledges that Gaussian, Inc. is engaged in the
 business of creating and licensing software in the field of
 computational chemistry and represents and warrants to the
 licensee that it is not a competitor of Gaussian, Inc. and that
 it will not use this program in any manner prohibited above.
 ---------------------------------------------------------------
  

 Cite this work as:
 Gaussian 09, Revision D.01,
 M. J. Frisch, G. W. Trucks, H. B. Schlegel, G. E. Scuseria, 
 M. A. Robb, J. R. Cheeseman, G. Scalmani, V. Barone, B. Mennucci, 
 G. A. Petersson, H. Nakatsuji, M. Caricato, X. Li, H. P. Hratchian, 
 A. F. Izmaylov, J. Bloino, G. Zheng, J. L. Sonnenberg, M. Hada, 
 M. Ehara, K. Toyota, R. Fukuda, J. Hasegawa, M. Ishida, T. Nakajima, 
 Y. Honda, O. Kitao, H. Nakai, T. Vreven, J. A. Montgomery, Jr., 
 J. E. Peralta, F. Ogliaro, M. Bearpark, J. J. Heyd, E. Brothers, 
 K. N. Kudin, V. N. Staroverov, T. Keith, R. Kobayashi, J. Normand, 
 K. Raghavachari, A. Rendell, J. C. Burant, S. S. Iyengar, J. Tomasi, 
 M. Cossi, N. Rega, J. M. Millam, M. Klene, J. E. Knox, J. B. Cross, 
 V. Bakken, C. Adamo, J. Jaramillo, R. Gomperts, R. E. Stratmann, 
 O. Yazyev, A. J. Austin, R. Cammi, C. Pomelli, J. W. Ochterski, 
 R. L. Martin, K. Morokuma, V. G. Zakrzewski, G. A. Voth, 
 P. Salvador, J. J. Dannenberg, S. Dapprich, A. D. Daniels, 
 O. Farkas, J. B. Foresman, J. V. Ortiz, J. Cioslowski, 
 and D. J. Fox, Gaussian, Inc., Wallingford CT, 2013.
 
 ******************************************
 Gaussian 09:  ES64L-G09RevD.01 24-Apr-2013
                25-Jul-2019 
 ******************************************
 %NProc=4
 Will use up to    4 processors via shared memory.
 %mem=4GB
 ----------------------------------------------------------------
 # PBE1PBE/SDDAll scf=(maxcycle=512) opt=(cartesian,maxcycle=512)
 ----------------------------------------------------------------
 1/6=512,10=7,14=-1,18=10,26=3,38=1/1,3;
 2/12=2,17=6,18=5,29=2,40=1/2;
 3/5=17,6=6,11=2,16=1,25=1,30=1,71=1,74=-13/1,2,3;
 4//1;
 5/5=2,7=512,38=5/2;
 6/7=2,8=2,9=2,10=2,28=1/1;
 7/7=1,29=1/1,2,3,16;
 1/6=512,10=7,14=-1,18=10,26=3/3(2);
 2/29=1/2;
 99/12=1/99;
 2/29=1/2;
 3/5=17,6=6,11=2,16=1,25=1,30=1,71=1,74=-13/1,2,3;
 4/5=5,16=3,69=1/1;
 5/5=2,7=512,38=5/2;
 7/7=1/1,2,3,16;
 1/6=512,14=-1,18=10,26=3/3(-5);
 2/29=1/2;
 6/7=2,8=2,9=2,10=2,19=2,28=1/1;
 99/9=1,12=1/99;
 ------------------------------------
 Cellular Automata job -34.4131413496
 ------------------------------------
 Symbolic Z-matrix:
 Charge =  0 Multiplicity = 1
 8                    -1.28127   0.01006  -0.00731 
 1                    -1.72222  -0.78629   0.32398 
 1                    -1.9047    0.73784  -0.15503 
 8                     1.45222  -0.07389  -0.06573 
 1                     0.47554  -0.01175  -0.16098 
 1                     1.78375   0.57088   0.57627 
 

 GradGradGradGradGradGradGradGradGradGradGradGradGradGradGradGradGradGrad
 Berny optimization.
 Initialization pass.
 No Z-matrix variables, so optimization will use Cartesian coordinates.
 Trust Radius=3.00D-01 FncErr=1.00D-07 GrdErr=1.00D-06
 Number of steps in this run=    100 maximum allowed number of steps=    100.
 GradGradGradGradGradGradGradGradGradGradGradGradGradGradGradGradGradGrad

 ---------------------------------------------------------------------------------------------------
                            Z-MATRIX (ANGSTROMS AND DEGREES)
   CD    Cent   Atom    N1       Length/X        N2       Alpha/Y        N3        Beta/Z          J
 ---------------------------------------------------------------------------------------------------
      1      1  O        0  -1.281267          0.010056         -0.007306
      2      2  H        0  -1.722223         -0.786291          0.323982
      3      3  H        0  -1.904697          0.737842         -0.155032
      4      4  O        0   1.452221         -0.073890         -0.065725
      5      5  H        0   0.475536         -0.011753         -0.160976
      6      6  H        0   1.783747          0.570875          0.576270
 ---------------------------------------------------------------------------------------------------
                         Z-Matrix orientation:                         
 ---------------------------------------------------------------------
 Center     Atomic      Atomic             Coordinates (Angstroms)
 Number     Number       Type             X           Y           Z
 ---------------------------------------------------------------------
      1          8           0       -1.281267    0.010056   -0.007306
      2          1           0       -1.722223   -0.786291    0.323982
      3          1           0       -1.904697    0.737842   -0.155032
      4          8           0        1.452221   -0.073890   -0.065725
      5          1           0        0.475536   -0.011753   -0.160976
      6          1           0        1.783747    0.570875    0.576270
 ---------------------------------------------------------------------
                    Distance matrix (angstroms):
                    1          2          3          4          5
     1  O    0.000000
     2  H    0.968691   0.000000
     3  H    0.969619   1.608021   0.000000
     4  O    2.735401   3.276657   3.454820   0.000000
     5  H    1.763646   2.380176   2.495483   0.983284   0.000000
     6  H    3.170077   3.767940   3.763947   0.968395   1.610715
                    6
     6  H    0.000000
 Stoichiometry    H4O2
 Framework group  C1[X(H4O2)]
 Deg. of freedom    12
 Full point group                 C1      NOp   1
 Largest Abelian subgroup         C1      NOp   1
 Largest concise Abelian subgroup C1      NOp   1
                         Standard orientation:                         
 ---------------------------------------------------------------------
 Center     Atomic      Atomic             Coordinates (Angstroms)
 Number     Number       Type             X           Y           Z
 ---------------------------------------------------------------------
      1          8           0       -1.281267    0.010056   -0.007306
      2          1           0       -1.722223   -0.786291    0.323982
      3          1           0       -1.904697    0.737842   -0.155032
      4          8           0        1.452221   -0.073890   -0.065725
      5          1           0        0.475536   -0.011753   -0.160976
      6          1           0        1.783747    0.570875    0.576270
 ---------------------------------------------------------------------
 Rotational constants (GHZ):    238.9983695      7.1600486      7.0575478
 Standard basis: SDDAll (6D, 10F)
 There are    30 symmetry adapted cartesian basis functions of A   symmetry.
 There are    30 symmetry adapted basis functions of A   symmetry.
    30 basis functions,    54 primitive gaussians,    30 cartesian basis functions
     8 alpha electrons        8 beta electrons
       nuclear repulsion energy        26.0872529766 Hartrees.
 NAtoms=    6 NActive=    6 NUniq=    6 SFac= 1.00D+00 NAtFMM=   60 NAOKFM=F Big=F
 Integral buffers will be    131072 words long.
 Raffenetti 2 integral format.
 Two-electron integral symmetry is turned on.
 One-electron integrals computed using PRISM.
   1 Symmetry operations used in ECPInt.
 ECPInt:  NShTT=     171 NPrTT=     619 LenC2=     172 LenP2D=     564.
 LDataN:  DoStor=T MaxTD1= 4 Len=   56
 NBasis=    30 RedAO= T EigKep=  3.56D-02  NBF=    30
 NBsUse=    30 1.00D-06 EigRej= -1.00D+00 NBFU=    30
 ExpMin= 7.02D-02 ExpMax= 4.71D+01 ExpMxC= 4.71D+01 IAcc=2 IRadAn=         4 AccDes= 0.00D+00
 Harris functional with IExCor= 1009 and IRadAn=       4 diagonalized for initial guess.
 HarFok:  IExCor= 1009 AccDes= 0.00D+00 IRadAn=         4 IDoV= 1 UseB2=F ITyADJ=14
 ICtDFT=  3500011 ScaDFX=  1.000000  1.000000  1.000000  1.000000
 FoFCou: FMM=F IPFlag=           0 FMFlag=      100000 FMFlg1=           0
         NFxFlg=           0 DoJE=T BraDBF=F KetDBF=T FulRan=T
         wScrn=  0.000000 ICntrl=     500 IOpCl=  0 I1Cent=   200000004 NGrid=           0
         NMat0=    1 NMatS0=      1 NMatT0=    0 NMatD0=    1 NMtDS0=    0 NMtDT0=    0
 Petite list used in FoFCou.
 Keep R1 ints in memory in canonical form, NReq=1237769.
 Requested convergence on RMS density matrix=1.00D-08 within 512 cycles.
 Requested convergence on MAX density matrix=1.00D-06.
 Requested convergence on             energy=1.00D-06.
 No special actions if energy rises.
 Integral accuracy reduced to 1.0D-05 until final iterations.
 Initial convergence to 1.0D-05 achieved.  Increase integral accuracy.
 SCF Done:  E(RPBE1PBE) =  -34.4131413504     A.U. after   12 cycles
            NFock= 12  Conv=0.55D-08     -V/T= 2.2651

 **********************************************************************

            Population analysis using the SCF density.

 **********************************************************************

 Orbital symmetries:
       Occupied  (A) (A) (A) (A) (A) (A) (A) (A)
       Virtual   (A) (A) (A) (A) (A) (A) (A) (A) (A) (A) (A) (A)
                 (A) (A) (A) (A) (A) (A) (A) (A) (A) (A)
 The electronic state is 1-A.
 Alpha  occ. eigenvalues --   -1.08607  -1.00183  -0.60707  -0.53247  -0.42903
 Alpha  occ. eigenvalues --   -0.36802  -0.33157  -0.28587
 Alpha virt. eigenvalues --    0.02741   0.08540   0.09380   0.11946   0.15454
 Alpha virt. eigenvalues --    0.16344   0.18579   0.22621   0.25739   0.32140
 Alpha virt. eigenvalues --    0.88951   1.01448   1.09694   1.11398   1.14818
 Alpha virt. eigenvalues --    1.17595   1.19549   1.22774   1.25207   1.29587
 Alpha virt. eigenvalues --    2.03108   2.46530
          Condensed to atoms (all electrons):
               1          2          3          4          5          6
     1  O    6.323233   0.282796   0.280436  -0.017376  -0.001898   0.000596
     2  H    0.282796   0.305363  -0.022442   0.000639   0.000913   0.000008
     3  H    0.280436  -0.022442   0.303482   0.000339   0.000903  -0.000030
     4  O   -0.017376   0.000639   0.000339   6.305752   0.277135   0.280883
     5  H   -0.001898   0.000913   0.000903   0.277135   0.280932  -0.023786
     6  H    0.000596   0.000008  -0.000030   0.280883  -0.023786   0.363010
 Mulliken charges:
               1
     1  O   -0.867786
     2  H    0.432723
     3  H    0.437313
     4  O   -0.847371
     5  H    0.465802
     6  H    0.379319
 Sum of Mulliken charges =   0.00000
 Mulliken charges with hydrogens summed into heavy atoms:
               1
     1  O    0.002250
     4  O   -0.002250
 Electronic spatial extent (au):  <R**2>=            149.6406
 Charge=              0.0000 electrons
 Dipole moment (field-independent basis, Debye):
    X=             -4.5913    Y=              1.4691    Z=              1.6745  Tot=              5.1031
 Quadrupole moment (field-independent basis, Debye-Ang):
   XX=             -9.7039   YY=            -11.3203   ZZ=            -14.3416
   XY=              2.9038   XZ=              2.1847   YZ=             -0.1715
 Traceless Quadrupole moment (field-independent basis, Debye-Ang):
   XX=              2.0847   YY=              0.4683   ZZ=             -2.5530
   XY=              2.9038   XZ=              2.1847   YZ=             -0.1715
 Octapole moment (field-independent basis, Debye-Ang**2):
  XXX=            -22.5350  YYY=              1.0418  ZZZ=              1.3564  XYY=             -5.5371
  XXY=              6.5070  XXZ=              6.8546  XZZ=             -0.2263  YZZ=              0.4357
  YYZ=              0.8216  XYZ=              3.3611
 Hexadecapole moment (field-independent basis, Debye-Ang**3):
 XXXX=           -147.1746 YYYY=            -15.2269 ZZZZ=            -16.6788 XXXY=              8.4766
 XXXZ=              9.9897 YYYX=              2.5758 YYYZ=             -0.3413 ZZZX=              2.0637
 ZZZY=              0.1238 XXYY=            -23.5074 XXZZ=            -32.2649 YYZZ=             -5.2403
 XXYZ=             -0.5747 YYXZ=              0.6794 ZZXY=              1.3926
 N-N= 2.608725297660D+01 E-N=-1.343600098520D+02  KE= 2.720236534929D+01
   1 Symmetry operations used in ECPInt.
 ECPInt:  NShTT=     171 NPrTT=     619 LenC2=     172 LenP2D=     564.
 LDataN:  DoStor=T MaxTD1= 5 Len=  102
 Calling FoFJK, ICntrl=      2127 FMM=F ISym2X=0 I1Cent= 0 IOpClX= 0 NMat=1 NMatS=1 NMatT=0.
 ***** Axes restored to original set *****
 -------------------------------------------------------------------
 Center     Atomic                   Forces (Hartrees/Bohr)
 Number     Number              X              Y              Z
 -------------------------------------------------------------------
      1        8          -0.000417524    0.001518643    0.000774679
      2        1           0.000156923   -0.000093599   -0.000455847
      3        1           0.000548789   -0.001263255   -0.000694062
      4        8           0.000090244    0.000546025   -0.001007108
      5        1          -0.000716169   -0.000253699    0.001405311
      6        1           0.000337737   -0.000454115   -0.000022972
 -------------------------------------------------------------------
 Cartesian Forces:  Max     0.001518643 RMS     0.000741400

 GradGradGradGradGradGradGradGradGradGradGradGradGradGradGradGradGradGrad
 Berny optimization.
 Search for a local minimum.
 Step number   1 out of a maximum of  100
 All quantities printed in internal units (Hartrees-Bohrs-Radians)
 Second derivative matrix not updated -- first step.
 The second derivative matrix:
                          X1        Y1        Z1        X2        Y2
           X1           0.45915
           Y1          -0.04899   0.66424
           Z1          -0.05307  -0.21337   0.07893
           X2          -0.17961  -0.20519   0.09533   0.14805
           Y2          -0.16367  -0.36015   0.14442   0.18077   0.37337
           Z2           0.08153   0.15069  -0.06240  -0.08245  -0.15140
           X3          -0.27954   0.25418  -0.04226   0.03156  -0.01709
           Y3           0.21267  -0.30409   0.06895   0.02442  -0.01323
           Z3          -0.02846   0.06268  -0.01653  -0.01288   0.00698
           X4           0.00000   0.00000   0.00000   0.00000   0.00000
           Y4           0.00000   0.00000   0.00000   0.00000   0.00000
           Z4           0.00000   0.00000   0.00000   0.00000   0.00000
           X5           0.00000   0.00000   0.00000   0.00000   0.00000
           Y5           0.00000   0.00000   0.00000   0.00000   0.00000
           Z5           0.00000   0.00000   0.00000   0.00000   0.00000
           X6           0.00000   0.00000   0.00000   0.00000   0.00000
           Y6           0.00000   0.00000   0.00000   0.00000   0.00000
           Z6           0.00000   0.00000   0.00000   0.00000   0.00000
                          Z2        X3        Y3        Z3        X4
           Z2           0.06277
           X3           0.00091   0.24798
           Y3           0.00071  -0.23709   0.31732
           Z3          -0.00037   0.04134  -0.06966   0.01691
           X4           0.00000   0.00000   0.00000   0.00000   0.60689
           Y4           0.00000   0.00000   0.00000   0.00000   0.04266
           Z4           0.00000   0.00000   0.00000   0.00000   0.13360
           X5           0.00000   0.00000   0.00000   0.00000  -0.50157
           Y5           0.00000   0.00000   0.00000   0.00000   0.06492
           Z5           0.00000   0.00000   0.00000   0.00000  -0.01869
           X6           0.00000   0.00000   0.00000   0.00000  -0.10532
           Y6           0.00000   0.00000   0.00000   0.00000  -0.10758
           Z6           0.00000   0.00000   0.00000   0.00000  -0.11491
                          Y4        Z4        X5        Y5        Z5
           Y4           0.29320
           Z4           0.27510   0.27270
           X5           0.03278  -0.04812   0.50075
           Y5          -0.03868  -0.02530  -0.03250   0.02733
           Z5          -0.03031  -0.03066   0.04825   0.01996   0.02579
           X6          -0.07544  -0.08548   0.00082  -0.03242  -0.02956
           Y6          -0.25452  -0.24980  -0.00029   0.01135   0.01035
           Z6          -0.24480  -0.24204  -0.00014   0.00534   0.00487
                          X6        Y6        Z6
           X6           0.10450
           Y6           0.10787   0.24317
           Z6           0.11504   0.23945   0.23717
 ITU=  0
     Eigenvalues ---    0.00000   0.00000   0.00000   0.00000   0.00000
     Eigenvalues ---    0.00000   0.15179   0.16023   0.80949   0.87465
     Eigenvalues ---    1.09846   1.12032
 RFO step:  Lambda=-2.43638754D-03 EMin=-5.55111512D-16
 Linear search not attempted -- first point.
 Maximum step size (   0.300) exceeded in Quadratic search.
    -- Step size scaled by   0.300
 TrRot= -0.000686  0.021820 -0.002403 -0.822132  0.016383  0.823857
 Variable       Old X    -DE/DX   Delta X   Delta X   Delta X     New X
                                 (Linear)    (Quad)   (Total)
    X1       -2.42124  -0.00042   0.00000   0.02944   0.02951  -2.39173
    Y1        0.01900   0.00152   0.00000   0.03926   0.05604   0.07504
    Z1       -0.01381   0.00077   0.00000   0.07655   0.10146   0.08765
    X2       -3.25453   0.00016   0.00000   0.02354   0.03159  -3.22294
    Y2       -1.48587  -0.00009   0.00000  -0.01905  -0.00940  -1.49527
    Z2        0.61224  -0.00046   0.00000  -0.07140  -0.05600   0.55624
    X3       -3.59936   0.00055   0.00000  -0.01970  -0.02732  -3.62668
    Y3        1.39432  -0.00126   0.00000  -0.04966  -0.02911   1.36521
    Z3       -0.29297  -0.00069   0.00000  -0.14957  -0.09547  -0.38844
    X4        2.74430   0.00009   0.00000  -0.02574  -0.02852   2.71578
    Y4       -0.13963   0.00055   0.00000   0.04039   0.06933  -0.07030
    Z4       -0.12420  -0.00101   0.00000  -0.06313  -0.09696  -0.22116
    X5        0.89863  -0.00072   0.00000  -0.05546  -0.05749   0.84114
    Y5       -0.02221  -0.00025   0.00000  -0.05721  -0.03234  -0.05455
    Z5       -0.30420   0.00141   0.00000   0.17644   0.16372  -0.14048
    X6        3.37079   0.00034   0.00000   0.04254   0.05223   3.42303
    Y6        1.07880  -0.00045   0.00000  -0.06917  -0.05452   1.02428
    Z6        1.08899  -0.00002   0.00000   0.01166  -0.01674   1.07225
         Item               Value     Threshold  Converged?
 Maximum Force            0.001519     0.000450     NO 
 RMS     Force            0.000741     0.000300     NO 
 Maximum Displacement     0.163720     0.001800     NO 
 RMS     Displacement     0.067245     0.001200     NO 
 Predicted change in Energy=-7.204093D-04
 GradGradGradGradGradGradGradGradGradGradGradGradGradGradGradGradGradGrad

                          Input orientation:                          
 ---------------------------------------------------------------------
 Center     Atomic      Atomic             Coordinates (Angstroms)
 Number     Number       Type             X           Y           Z
 ---------------------------------------------------------------------
      1          8           0       -1.265651    0.039709    0.046384
      2          1           0       -1.705507   -0.791264    0.294347
      3          1           0       -1.919156    0.722436   -0.205555
      4          8           0        1.437129   -0.037200   -0.117034
      5          1           0        0.445114   -0.028867   -0.074339
      6          1           0        1.811388    0.542025    0.567410
 ---------------------------------------------------------------------
                    Distance matrix (angstroms):
                    1          2          3          4          5
     1  O    0.000000
     2  H    0.972355   0.000000
     3  H    0.978090   1.608365   0.000000
     4  O    2.708808   3.257915   3.442316   0.000000
     5  H    1.716389   2.311352   2.484240   0.992969   0.000000
     6  H    3.161006   3.771043   3.814050   0.971614   1.613835
                    6
     6  H    0.000000
 Stoichiometry    H4O2
 Framework group  C1[X(H4O2)]
 Deg. of freedom    12
 Full point group                 C1      NOp   1
 Largest Abelian subgroup         C1      NOp   1
 Largest concise Abelian subgroup C1      NOp   1
                         Standard orientation:                         
 ---------------------------------------------------------------------
 Center     Atomic      Atomic             Coordinates (Angstroms)
 Number     Number       Type             X           Y           Z
 ---------------------------------------------------------------------
      1          8           0       -1.266512    0.019565    0.015749
      2          1           0       -1.714409   -0.815319    0.234453
      3          1           0       -1.911965    0.709871   -0.236296
      4          8           0        1.439183   -0.062421   -0.084938
      5          1           0        0.446456   -0.051832   -0.065705
      6          1           0        1.798553    0.500131    0.621053
 ---------------------------------------------------------------------
 Rotational constants (GHZ):    242.5402210      7.2749476      7.1829746
 Standard basis: SDDAll (6D, 10F)
 There are    30 symmetry adapted cartesian basis functions of A   symmetry.
 There are    30 symmetry adapted basis functions of A   symmetry.
    30 basis functions,    54 primitive gaussians,    30 cartesian basis functions
     8 alpha electrons        8 beta electrons
       nuclear repulsion energy        26.1388203675 Hartrees.
 NAtoms=    6 NActive=    6 NUniq=    6 SFac= 1.00D+00 NAtFMM=   60 NAOKFM=F Big=F
 Integral buffers will be    131072 words long.
 Raffenetti 2 integral format.
 Two-electron integral symmetry is turned on.
 One-electron integrals computed using PRISM.
   1 Symmetry operations used in ECPInt.
 ECPInt:  NShTT=     171 NPrTT=     619 LenC2=     172 LenP2D=     564.
 LDataN:  DoStor=T MaxTD1= 4 Len=   56
 NBasis=    30 RedAO= T EigKep=  3.33D-02  NBF=    30
 NBsUse=    30 1.00D-06 EigRej= -1.00D+00 NBFU=    30
 Initial guess from the checkpoint file:  "/tmp/Gau-14715.chk"
 B after Tr=     0.000000    0.000000    0.000000
         Rot=    0.999728   -0.023331   -0.000599    0.000151 Ang=  -2.67 deg.
 ExpMin= 7.02D-02 ExpMax= 4.71D+01 ExpMxC= 4.71D+01 IAcc=2 IRadAn=         4 AccDes= 0.00D+00
 Harris functional with IExCor= 1009 and IRadAn=       4 diagonalized for initial guess.
 HarFok:  IExCor= 1009 AccDes= 0.00D+00 IRadAn=         4 IDoV= 1 UseB2=F ITyADJ=14
 ICtDFT=  3500011 ScaDFX=  1.000000  1.000000  1.000000  1.000000
 FoFCou: FMM=F IPFlag=           0 FMFlag=      100000 FMFlg1=           0
         NFxFlg=           0 DoJE=T BraDBF=F KetDBF=T FulRan=T
         wScrn=  0.000000 ICntrl=     500 IOpCl=  0 I1Cent=   200000004 NGrid=           0
         NMat0=    1 NMatS0=      1 NMatT0=    0 NMatD0=    1 NMtDS0=    0 NMtDT0=    0
 Petite list used in FoFCou.
 Keep R1 ints in memory in canonical form, NReq=1237769.
 Requested convergence on RMS density matrix=1.00D-08 within 512 cycles.
 Requested convergence on MAX density matrix=1.00D-06.
 Requested convergence on             energy=1.00D-06.
 No special actions if energy rises.
 Integral accuracy reduced to 1.0D-05 until final iterations.
 Initial convergence to 1.0D-05 achieved.  Increase integral accuracy.
 SCF Done:  E(RPBE1PBE) =  -34.4131900530     A.U. after   11 cycles
            NFock= 11  Conv=0.54D-08     -V/T= 2.2672
   1 Symmetry operations used in ECPInt.
 ECPInt:  NShTT=     171 NPrTT=     619 LenC2=     172 LenP2D=     564.
 LDataN:  DoStor=T MaxTD1= 5 Len=  102
 Calling FoFJK, ICntrl=      2127 FMM=F ISym2X=0 I1Cent= 0 IOpClX= 0 NMat=1 NMatS=1 NMatT=0.
 ***** Axes restored to original set *****
 -------------------------------------------------------------------
 Center     Atomic                   Forces (Hartrees/Bohr)
 Number     Number              X              Y              Z
 -------------------------------------------------------------------
      1        8          -0.009576329    0.001347330    0.000499269
      2        1           0.001456497    0.002156652   -0.000832565
      3        1           0.007280045   -0.005111738    0.001151763
      4        8          -0.006087216    0.001460575    0.003557825
      5        1           0.006665539    0.002111075   -0.002264299
      6        1           0.000261465   -0.001963894   -0.002111993
 -------------------------------------------------------------------
 Cartesian Forces:  Max     0.009576329 RMS     0.004054738

 GradGradGradGradGradGradGradGradGradGradGradGradGradGradGradGradGradGrad
 Berny optimization.
 Search for a local minimum.
 Step number   2 out of a maximum of  100
 All quantities printed in internal units (Hartrees-Bohrs-Radians)
 Update second derivatives using D2CorN and points    1    2
 DE= -4.87D-05 DEPred=-7.20D-04 R= 6.76D-02
 Trust test= 6.76D-02 RLast= 2.85D-01 DXMaxT set to 1.50D-01
 The second derivative matrix:
                          X1        Y1        Z1        X2        Y2
           X1           0.46215
           Y1          -0.04585   0.66538
           Z1          -0.04793  -0.21237   0.07883
           X2          -0.17826  -0.20536   0.09442   0.14750
           Y2          -0.16465  -0.36119   0.14271   0.18031   0.37369
           Z2           0.07879   0.15032  -0.06202  -0.08185  -0.15049
           X3          -0.28196   0.25193  -0.04581   0.03069  -0.01630
           Y3           0.21171  -0.30340   0.07075   0.02523  -0.01290
           Z3          -0.03362   0.06113  -0.01753  -0.01237   0.00869
           X4          -0.00009   0.00230   0.00470   0.00171   0.00005
           Y4           0.00320   0.00009  -0.00115  -0.00095  -0.00107
           Z4          -0.00586  -0.00276  -0.00316  -0.00015   0.00194
           X5          -0.00453  -0.00363  -0.00548  -0.00121   0.00149
           Y5          -0.00203  -0.00106  -0.00131  -0.00013   0.00067
           Z5           0.00899   0.00292   0.00219  -0.00073  -0.00299
           X6           0.00269   0.00060   0.00010  -0.00042  -0.00090
           Y6          -0.00238   0.00019   0.00137   0.00090   0.00080
           Z6          -0.00036   0.00076   0.00169   0.00067   0.00013
                          Z2        X3        Y3        Z3        X4
           Z2           0.06239
           X3           0.00279   0.24990
           Y3          -0.00038  -0.23655   0.31629
           Z3          -0.00013   0.04498  -0.07104   0.01887
           X4          -0.00269  -0.00026  -0.00185  -0.00412   0.60425
           Y4           0.00086  -0.00214   0.00154   0.00034   0.04618
           Z4           0.00144   0.00427  -0.00079   0.00402   0.13002
           X5           0.00284   0.00351   0.00057   0.00578  -0.50267
           Y5           0.00062   0.00150  -0.00019   0.00158   0.06380
           Z5          -0.00069  -0.00637   0.00223  -0.00382  -0.01177
           X6           0.00011  -0.00187   0.00088  -0.00066  -0.10294
           Y6          -0.00093   0.00155  -0.00135  -0.00070  -0.11048
           Z6          -0.00099   0.00014  -0.00078  -0.00141  -0.11615
                          Y4        Z4        X5        Y5        Z5
           Y4           0.29168
           Z4           0.27397   0.27884
           X5           0.02965  -0.04102   0.50700
           Y5          -0.03923  -0.02300  -0.02999   0.02817
           Z5          -0.03055  -0.03802   0.03806   0.01708   0.03313
           X6          -0.07593  -0.08726  -0.00209  -0.03315  -0.02818
           Y6          -0.25301  -0.24936   0.00191   0.01164   0.01130
           Z6          -0.24346  -0.24312  -0.00018   0.00503   0.00721
                          X6        Y6        Z6
           X6           0.10463
           Y6           0.10849   0.24173
           Z6           0.11589   0.23833   0.23661
 ITU= -1  0
     Eigenvalues ---   -0.00197   0.00000   0.00000   0.00000   0.00000
     Eigenvalues ---    0.02009   0.15084   0.16051   0.80816   0.88022
     Eigenvalues ---    1.09663   1.11169
 RFO step:  Lambda=-3.38124874D-03 EMin=-1.97233203D-03
 Quartic linear search produced a step of -0.42122.
 Maximum step size (   0.150) exceeded in Quadratic search.
    -- Step size scaled by   0.150
 TrRot= -0.003574 -0.004082  0.008987 -0.002878  0.002229  0.003091
 Variable       Old X    -DE/DX   Delta X   Delta X   Delta X     New X
                                 (Linear)    (Quad)   (Total)
    X1       -2.39173  -0.00958  -0.01243   0.00681  -0.00901  -2.40074
    Y1        0.07504   0.00135  -0.02360  -0.01283  -0.04102   0.03401
    Z1        0.08765   0.00050  -0.04274   0.03822   0.00981   0.09746
    X2       -3.22294   0.00146  -0.01331  -0.03681  -0.05213  -3.27508
    Y2       -1.49527   0.00216   0.00396  -0.01553  -0.01635  -1.51162
    Z2        0.55624  -0.00083   0.02359  -0.02980   0.01006   0.56629
    X3       -3.62668   0.00728   0.01151   0.02845   0.03520  -3.59148
    Y3        1.36521  -0.00511   0.01226  -0.01637  -0.00895   1.35626
    Z3       -0.38844   0.00115   0.04022  -0.05653   0.00068  -0.38776
    X4        2.71578  -0.00609   0.01201  -0.02033  -0.01227   2.70351
    Y4       -0.07030   0.00146  -0.02920  -0.00440  -0.03711  -0.10741
    Z4       -0.22116   0.00356   0.04084   0.00244   0.04623  -0.17493
    X5        0.84114   0.00667   0.02422  -0.01171   0.00846   0.84960
    Y5       -0.05455   0.00211   0.01362   0.09885   0.10857   0.05402
    Z5       -0.14048  -0.00226  -0.06896   0.00325  -0.05862  -0.19911
    X6        3.42303   0.00026  -0.02200   0.05319   0.02976   3.45279
    Y6        1.02428  -0.00196   0.02296  -0.02475  -0.00514   1.01914
    Z6        1.07225  -0.00211   0.00705  -0.01650  -0.00815   1.06410
         Item               Value     Threshold  Converged?
 Maximum Force            0.009576     0.000450     NO 
 RMS     Force            0.004055     0.000300     NO 
 Maximum Displacement     0.108574     0.001800     NO 
 RMS     Displacement     0.038157     0.001200     NO 
 Predicted change in Energy=-7.062908D-04
 GradGradGradGradGradGradGradGradGradGradGradGradGradGradGradGradGradGrad

                          Input orientation:                          
 ---------------------------------------------------------------------
 Center     Atomic      Atomic             Coordinates (Angstroms)
 Number     Number       Type             X           Y           Z
 ---------------------------------------------------------------------
      1          8           0       -1.270419    0.017999    0.051575
      2          1           0       -1.733095   -0.799917    0.299669
      3          1           0       -1.900530    0.717702   -0.205194
      4          8           0        1.430634   -0.056837   -0.092570
      5          1           0        0.449591    0.028588   -0.105362
      6          1           0        1.827136    0.539304    0.563095
 ---------------------------------------------------------------------
                    Distance matrix (angstroms):
                    1          2          3          4          5
     1  O    0.000000
     2  H    0.971909   0.000000
     3  H    0.975988   1.608131   0.000000
     4  O    2.705932   3.273408   3.421877   0.000000
     5  H    1.727187   2.369513   2.451104   0.984838   0.000000
     6  H    3.182493   3.812893   3.810195   0.970822   1.614093
                    6
     6  H    0.000000
 Stoichiometry    H4O2
 Framework group  C1[X(H4O2)]
 Deg. of freedom    12
 Full point group                 C1      NOp   1
 Largest Abelian subgroup         C1      NOp   1
 Largest concise Abelian subgroup C1      NOp   1
                         Standard orientation:                         
 ---------------------------------------------------------------------
 Center     Atomic      Atomic             Coordinates (Angstroms)
 Number     Number       Type             X           Y           Z
 ---------------------------------------------------------------------
      1          8           0       -1.267133    0.014907    0.017136
      2          1           0       -1.738440   -0.809069    0.225798
      3          1           0       -1.888831    0.727264   -0.224925
      4          8           0        1.435746   -0.069784   -0.079492
      5          1           0        0.455552    0.021611   -0.107305
      6          1           0        1.822817    0.499208    0.605285
 ---------------------------------------------------------------------
 Rotational constants (GHZ):    243.7312727      7.2824200      7.1847480
 Standard basis: SDDAll (6D, 10F)
 There are    30 symmetry adapted cartesian basis functions of A   symmetry.
 There are    30 symmetry adapted basis functions of A   symmetry.
    30 basis functions,    54 primitive gaussians,    30 cartesian basis functions
     8 alpha electrons        8 beta electrons
       nuclear repulsion energy        26.1622561410 Hartrees.
 NAtoms=    6 NActive=    6 NUniq=    6 SFac= 1.00D+00 NAtFMM=   60 NAOKFM=F Big=F
 Integral buffers will be    131072 words long.
 Raffenetti 2 integral format.
 Two-electron integral symmetry is turned on.
 One-electron integrals computed using PRISM.
   1 Symmetry operations used in ECPInt.
 ECPInt:  NShTT=     171 NPrTT=     619 LenC2=     172 LenP2D=     564.
 LDataN:  DoStor=T MaxTD1= 4 Len=   56
 NBasis=    30 RedAO= T EigKep=  3.41D-02  NBF=    30
 NBsUse=    30 1.00D-06 EigRej= -1.00D+00 NBFU=    30
 Initial guess from the checkpoint file:  "/tmp/Gau-14715.chk"
 B after Tr=     0.000000    0.000000    0.000000
         Rot=    0.999996   -0.002621   -0.000135    0.001219 Ang=  -0.33 deg.
 ExpMin= 7.02D-02 ExpMax= 4.71D+01 ExpMxC= 4.71D+01 IAcc=2 IRadAn=         4 AccDes= 0.00D+00
 Harris functional with IExCor= 1009 and IRadAn=       4 diagonalized for initial guess.
 HarFok:  IExCor= 1009 AccDes= 0.00D+00 IRadAn=         4 IDoV= 1 UseB2=F ITyADJ=14
 ICtDFT=  3500011 ScaDFX=  1.000000  1.000000  1.000000  1.000000
 FoFCou: FMM=F IPFlag=           0 FMFlag=      100000 FMFlg1=           0
         NFxFlg=           0 DoJE=T BraDBF=F KetDBF=T FulRan=T
         wScrn=  0.000000 ICntrl=     500 IOpCl=  0 I1Cent=   200000004 NGrid=           0
         NMat0=    1 NMatS0=      1 NMatT0=    0 NMatD0=    1 NMtDS0=    0 NMtDT0=    0
 Petite list used in FoFCou.
 Keep R1 ints in memory in canonical form, NReq=1237769.
 Requested convergence on RMS density matrix=1.00D-08 within 512 cycles.
 Requested convergence on MAX density matrix=1.00D-06.
 Requested convergence on             energy=1.00D-06.
 No special actions if energy rises.
 Integral accuracy reduced to 1.0D-05 until final iterations.
 Initial convergence to 1.0D-05 achieved.  Increase integral accuracy.
 SCF Done:  E(RPBE1PBE) =  -34.4134534096     A.U. after   11 cycles
            NFock= 11  Conv=0.52D-08     -V/T= 2.2662
   1 Symmetry operations used in ECPInt.
 ECPInt:  NShTT=     171 NPrTT=     619 LenC2=     172 LenP2D=     564.
 LDataN:  DoStor=T MaxTD1= 5 Len=  102
 Calling FoFJK, ICntrl=      2127 FMM=F ISym2X=0 I1Cent= 0 IOpClX= 0 NMat=1 NMatS=1 NMatT=0.
 ***** Axes restored to original set *****
 -------------------------------------------------------------------
 Center     Atomic                   Forces (Hartrees/Bohr)
 Number     Number              X              Y              Z
 -------------------------------------------------------------------
      1        8          -0.007914223    0.003487703   -0.000664431
      2        1           0.002483224    0.001705353   -0.000712683
      3        1           0.004863068   -0.004621364    0.001081061
      4        8           0.000909894    0.002734454    0.001155437
      5        1          -0.000001978   -0.001349574    0.000754516
      6        1          -0.000339986   -0.001956572   -0.001613901
 -------------------------------------------------------------------
 Cartesian Forces:  Max     0.007914223 RMS     0.002882682

 GradGradGradGradGradGradGradGradGradGradGradGradGradGradGradGradGradGrad
 Berny optimization.
 Search for a local minimum.
 Step number   3 out of a maximum of  100
 All quantities printed in internal units (Hartrees-Bohrs-Radians)
 Update second derivatives using D2CorN and points    1    2    3
 DE= -2.63D-04 DEPred=-7.06D-04 R= 3.73D-01
 Trust test= 3.73D-01 RLast= 1.62D-01 DXMaxT set to 1.50D-01
 The second derivative matrix:
                          X1        Y1        Z1        X2        Y2
           X1           0.46348
           Y1          -0.04596   0.66869
           Z1          -0.04331  -0.21580   0.08074
           X2          -0.18029  -0.20189   0.09053   0.15072
           Y2          -0.16625  -0.36015   0.14086   0.18141   0.37426
           Z2           0.07722   0.15083  -0.06157  -0.08115  -0.15004
           X3          -0.28140   0.24965  -0.04687   0.02983  -0.01598
           Y3           0.21025  -0.30267   0.07268   0.02491  -0.01326
           Z3          -0.03751   0.06310  -0.01891  -0.00989   0.01010
           X4          -0.00131   0.00758   0.00180   0.00832   0.00247
           Y4           0.00355   0.00197  -0.00480   0.00111  -0.00042
           Z4          -0.00735  -0.00502  -0.00261  -0.00130   0.00230
           X5          -0.00706  -0.00670  -0.00416  -0.00516   0.00047
           Y5           0.00308  -0.00930   0.00459  -0.00714  -0.00146
           Z5           0.01224   0.00511  -0.00026   0.00069  -0.00333
           X6           0.00659  -0.00268   0.00201  -0.00342  -0.00213
           Y6          -0.00467   0.00147   0.00247   0.00159   0.00102
           Z6          -0.00129   0.00177   0.00260   0.00113   0.00012
                          Z2        X3        Y3        Z3        X4
           Z2           0.06192
           X3           0.00365   0.24997
           Y3          -0.00129  -0.23514   0.31447
           Z3          -0.00036   0.04636  -0.07261   0.02006
           X4          -0.00331  -0.00322  -0.00151  -0.00268   0.60771
           Y4           0.00191  -0.00403   0.00271   0.00271   0.05083
           Z4           0.00156   0.00621  -0.00106   0.00438   0.12587
           X5           0.00327   0.00762  -0.00126   0.00560  -0.50423
           Y5           0.00036   0.00255   0.00197  -0.00171   0.05050
           Z5           0.00006  -0.01000   0.00413  -0.00290  -0.00619
           X6           0.00033  -0.00280   0.00275  -0.00189  -0.10726
           Y6          -0.00177   0.00296  -0.00322  -0.00159  -0.10988
           Z6          -0.00161   0.00064  -0.00185  -0.00227  -0.11550
                          Y4        Z4        X5        Y5        Z5
           Y4           0.29208
           Z4           0.27297   0.28142
           X5           0.02746  -0.03675   0.50801
           Y5          -0.04510  -0.01958  -0.02050   0.04193
           Z5          -0.03052  -0.04098   0.03363   0.01135   0.03506
           X6          -0.07893  -0.08668   0.00083  -0.02850  -0.03038
           Y6          -0.25123  -0.24962   0.00053   0.01195   0.01327
           Z6          -0.24228  -0.24378  -0.00159   0.00499   0.00901
                          X6        Y6        Z6
           X6           0.10607
           Y6           0.10948   0.24000
           Z6           0.11662   0.23725   0.23604
 ITU=  0 -1  0
     Eigenvalues ---   -0.00132  -0.00001   0.00000   0.00000   0.00854
     Eigenvalues ---    0.03912   0.15134   0.16055   0.81234   0.88104
     Eigenvalues ---    1.09669   1.11360
 RFO step:  Lambda=-1.68755398D-03 EMin=-1.31775186D-03
 Quartic linear search produced a step of -0.27052.
 Maximum step size (   0.150) exceeded in Quadratic search.
    -- Step size scaled by   0.263
 TrRot= -0.004165  0.000021 -0.011670  1.082268 -0.002873 -1.079843
 Variable       Old X    -DE/DX   Delta X   Delta X   Delta X     New X
                                 (Linear)    (Quad)   (Total)
    X1       -2.40074  -0.00791   0.00244  -0.04216  -0.04402  -2.44476
    Y1        0.03401   0.00349   0.01110  -0.01980  -0.01474   0.01928
    Z1        0.09746  -0.00066  -0.00265  -0.03888  -0.05645   0.04101
    X2       -3.27508   0.00248   0.01410  -0.03279  -0.02002  -3.29510
    Y2       -1.51162   0.00171   0.00442   0.00970   0.00465  -1.50698
    Z2        0.56629  -0.00071  -0.00272   0.03868   0.01603   0.58232
    X3       -3.59148   0.00486  -0.00952  -0.02120  -0.03766  -3.62914
    Y3        1.35626  -0.00462   0.00242   0.00148  -0.00390   1.35236
    Z3       -0.38776   0.00108  -0.00018   0.00965  -0.00366  -0.39142
    X4        2.70351   0.00091   0.00332   0.02254   0.02215   2.72565
    Y4       -0.10741   0.00273   0.01004   0.01434   0.03151  -0.07589
    Z4       -0.17493   0.00116  -0.01251  -0.01002  -0.03071  -0.20564
    X5        0.84960   0.00000  -0.00229   0.01653   0.01009   0.85969
    Y5        0.05402  -0.00135  -0.02937   0.03167   0.00469   0.05871
    Z5       -0.19911   0.00075   0.01586   0.07301   0.07851  -0.12059
    X6        3.45279  -0.00034  -0.00805   0.08553   0.06946   3.52225
    Y6        1.01914  -0.00196   0.00139  -0.02947  -0.02221   0.99692
    Z6        1.06410  -0.00161   0.00221  -0.00154  -0.00372   1.06038
         Item               Value     Threshold  Converged?
 Maximum Force            0.007914     0.000450     NO 
 RMS     Force            0.002883     0.000300     NO 
 Maximum Displacement     0.078515     0.001800     NO 
 RMS     Displacement     0.034573     0.001200     NO 
 Predicted change in Energy=-2.268273D-04
 GradGradGradGradGradGradGradGradGradGradGradGradGradGradGradGradGradGrad

                          Input orientation:                          
 ---------------------------------------------------------------------
 Center     Atomic      Atomic             Coordinates (Angstroms)
 Number     Number       Type             X           Y           Z
 ---------------------------------------------------------------------
      1          8           0       -1.293712    0.010200    0.021703
      2          1           0       -1.743691   -0.797458    0.308153
      3          1           0       -1.920458    0.715638   -0.207133
      4          8           0        1.442354   -0.040162   -0.108822
      5          1           0        0.454929    0.031070   -0.063814
      6          1           0        1.863895    0.527550    0.561126
 ---------------------------------------------------------------------
                    Distance matrix (angstroms):
                    1          2          3          4          5
     1  O    0.000000
     2  H    0.967908   0.000000
     3  H    0.970989   1.608175   0.000000
     4  O    2.739641   3.301249   3.448101   0.000000
     5  H    1.750855   2.378812   2.476214   0.991014   0.000000
     6  H    3.244859   3.851534   3.866125   0.974076   1.619330
                    6
     6  H    0.000000
 Stoichiometry    H4O2
 Framework group  C1[X(H4O2)]
 Deg. of freedom    12
 Full point group                 C1      NOp   1
 Largest Abelian subgroup         C1      NOp   1
 Largest concise Abelian subgroup C1      NOp   1
                         Standard orientation:                         
 ---------------------------------------------------------------------
 Center     Atomic      Atomic             Coordinates (Angstroms)
 Number     Number       Type             X           Y           Z
 ---------------------------------------------------------------------
      1          8           0       -1.286093    0.012622    0.007949
      2          1           0       -1.749589   -0.805545    0.237338
      3          1           0       -1.901172    0.738546   -0.185783
      4          8           0        1.450879   -0.063453   -0.086006
      5          1           0        0.463767    0.017083   -0.050907
      6          1           0        1.868705    0.456558    0.623806
 ---------------------------------------------------------------------
 Rotational constants (GHZ):    247.0697749      7.1032673      7.0156831
 Standard basis: SDDAll (6D, 10F)
 There are    30 symmetry adapted cartesian basis functions of A   symmetry.
 There are    30 symmetry adapted basis functions of A   symmetry.
    30 basis functions,    54 primitive gaussians,    30 cartesian basis functions
     8 alpha electrons        8 beta electrons
       nuclear repulsion energy        26.0080733605 Hartrees.
 NAtoms=    6 NActive=    6 NUniq=    6 SFac= 1.00D+00 NAtFMM=   60 NAOKFM=F Big=F
 Integral buffers will be    131072 words long.
 Raffenetti 2 integral format.
 Two-electron integral symmetry is turned on.
 One-electron integrals computed using PRISM.
   1 Symmetry operations used in ECPInt.
 ECPInt:  NShTT=     171 NPrTT=     619 LenC2=     172 LenP2D=     564.
 LDataN:  DoStor=T MaxTD1= 4 Len=   56
 NBasis=    30 RedAO= T EigKep=  3.53D-02  NBF=    30
 NBsUse=    30 1.00D-06 EigRej= -1.00D+00 NBFU=    30
 Initial guess from the checkpoint file:  "/tmp/Gau-14715.chk"
 B after Tr=     0.000000    0.000000    0.000000
         Rot=    0.999872   -0.015974   -0.000385    0.000287 Ang=  -1.83 deg.
 ExpMin= 7.02D-02 ExpMax= 4.71D+01 ExpMxC= 4.71D+01 IAcc=2 IRadAn=         4 AccDes= 0.00D+00
 Harris functional with IExCor= 1009 and IRadAn=       4 diagonalized for initial guess.
 HarFok:  IExCor= 1009 AccDes= 0.00D+00 IRadAn=         4 IDoV= 1 UseB2=F ITyADJ=14
 ICtDFT=  3500011 ScaDFX=  1.000000  1.000000  1.000000  1.000000
 FoFCou: FMM=F IPFlag=           0 FMFlag=      100000 FMFlg1=           0
         NFxFlg=           0 DoJE=T BraDBF=F KetDBF=T FulRan=T
         wScrn=  0.000000 ICntrl=     500 IOpCl=  0 I1Cent=   200000004 NGrid=           0
         NMat0=    1 NMatS0=      1 NMatT0=    0 NMatD0=    1 NMtDS0=    0 NMtDT0=    0
 Petite list used in FoFCou.
 Keep R1 ints in memory in canonical form, NReq=1237769.
 Requested convergence on RMS density matrix=1.00D-08 within 512 cycles.
 Requested convergence on MAX density matrix=1.00D-06.
 Requested convergence on             energy=1.00D-06.
 No special actions if energy rises.
 Integral accuracy reduced to 1.0D-05 until final iterations.
 Initial convergence to 1.0D-05 achieved.  Increase integral accuracy.
 SCF Done:  E(RPBE1PBE) =  -34.4134064611     A.U. after   11 cycles
            NFock= 11  Conv=0.46D-08     -V/T= 2.2665
   1 Symmetry operations used in ECPInt.
 ECPInt:  NShTT=     171 NPrTT=     619 LenC2=     172 LenP2D=     564.
 LDataN:  DoStor=T MaxTD1= 5 Len=  102
 Calling FoFJK, ICntrl=      2127 FMM=F ISym2X=0 I1Cent= 0 IOpClX= 0 NMat=1 NMatS=1 NMatT=0.
 ***** Axes restored to original set *****
 -------------------------------------------------------------------
 Center     Atomic                   Forces (Hartrees/Bohr)
 Number     Number              X              Y              Z
 -------------------------------------------------------------------
      1        8          -0.000816093    0.003066315    0.001316279
      2        1          -0.000135512   -0.000749034   -0.000427062
      3        1           0.001833464   -0.002116639   -0.000266204
      4        8          -0.004034935    0.004484838    0.004881135
      5        1           0.004452717   -0.001341139   -0.001882621
      6        1          -0.001299641   -0.003344342   -0.003621527
 -------------------------------------------------------------------
 Cartesian Forces:  Max     0.004881135 RMS     0.002706515

 GradGradGradGradGradGradGradGradGradGradGradGradGradGradGradGradGradGrad
 Berny optimization.
 Search for a local minimum.
 Step number   4 out of a maximum of  100
 All quantities printed in internal units (Hartrees-Bohrs-Radians)
 Update second derivatives using D2CorN and points    1    2    4    3
 DE=  4.69D-05 DEPred=-2.27D-04 R=-2.07D-01
 Trust test=-2.07D-01 RLast= 1.47D-01 DXMaxT set to 7.50D-02
 The second derivative matrix:
                          X1        Y1        Z1        X2        Y2
           X1           0.47581
           Y1          -0.04339   0.66995
           Z1          -0.03172  -0.21536   0.08589
           X2          -0.18031  -0.20160   0.08810   0.14919
           Y2          -0.16970  -0.36085   0.13742   0.18060   0.37476
           Z2           0.07440   0.15093  -0.06194  -0.08005  -0.14903
           X3          -0.27852   0.24915  -0.04945   0.02805  -0.01687
           Y3           0.21176  -0.30196   0.07616   0.02505  -0.01390
           Z3          -0.04009   0.06350  -0.02070  -0.00959   0.01067
           X4          -0.00857   0.00821  -0.00480   0.01012   0.00483
           Y4           0.00202   0.00242  -0.00419   0.00330   0.00065
           Z4          -0.00027  -0.00348   0.00312  -0.00001   0.00118
           X5          -0.00625  -0.00725   0.00024  -0.00506   0.00017
           Y5           0.00376  -0.01125   0.00392  -0.00748  -0.00086
           Z5           0.00114   0.00304  -0.00692   0.00162  -0.00031
           X6          -0.00217  -0.00513  -0.00237  -0.00200   0.00096
           Y6          -0.00446   0.00169   0.00205   0.00013   0.00020
           Z6          -0.00345   0.00137   0.00056  -0.00008   0.00007
                          Z2        X3        Y3        Z3        X4
           Z2           0.06161
           X3           0.00490   0.24504
           Y3          -0.00233  -0.23296   0.31382
           Z3          -0.00008   0.04599  -0.07339   0.02032
           X4          -0.00237  -0.00630  -0.00274  -0.00204   0.61282
           Y4           0.00159  -0.00025   0.00203   0.00479   0.05428
           Z4           0.00017   0.00768   0.00062   0.00420   0.11962
           X5           0.00229   0.01307  -0.00214   0.00627  -0.50589
           Y5           0.00041  -0.00028   0.00347  -0.00273   0.04634
           Z5           0.00135  -0.00813   0.00143  -0.00070   0.00414
           X6           0.00083  -0.00135   0.00103  -0.00053  -0.10218
           Y6          -0.00158   0.00121  -0.00346  -0.00284  -0.11093
           Z6          -0.00111  -0.00100  -0.00249  -0.00304  -0.11455
                          Y4        Z4        X5        Y5        Z5
           Y4           0.28785
           Z4           0.27255   0.28675
           X5           0.02333  -0.03304   0.50716
           Y5          -0.04485  -0.02205  -0.01620   0.04130
           Z5          -0.03465  -0.04914   0.02567   0.01471   0.04205
           X6          -0.08268  -0.09399  -0.00303  -0.02614  -0.02444
           Y6          -0.24809  -0.24883   0.00209   0.01219   0.01578
           Z6          -0.24011  -0.24510  -0.00143   0.00574   0.01335
                          X6        Y6        Z6
           X6           0.11072
           Y6           0.11196   0.23747
           Z6           0.12051   0.23541   0.23533
 ITU= -1  0 -1  0
 Energy rises -- skip Quadratic search.
 Quartic linear search produced a step of -0.57355.
 TrRot=  0.000000  0.000000  0.000000  0.000000  0.000000  0.000000
 Variable       Old X    -DE/DX   Delta X   Delta X   Delta X     New X
                                 (Linear)    (Quad)   (Total)
    X1       -2.44476  -0.00082   0.02525   0.00000   0.02525  -2.41952
    Y1        0.01928   0.00307   0.00845   0.00000   0.00845   0.02773
    Z1        0.04101   0.00132   0.03238   0.00000   0.03238   0.07339
    X2       -3.29510  -0.00014   0.01148   0.00000   0.01148  -3.28361
    Y2       -1.50698  -0.00075  -0.00266   0.00000  -0.00266  -1.50964
    Z2        0.58232  -0.00043  -0.00919   0.00000  -0.00919   0.57313
    X3       -3.62914   0.00183   0.02160   0.00000   0.02160  -3.60754
    Y3        1.35236  -0.00212   0.00224   0.00000   0.00224   1.35460
    Z3       -0.39142  -0.00027   0.00210   0.00000   0.00210  -0.38932
    X4        2.72565  -0.00403  -0.01270   0.00000  -0.01270   2.71295
    Y4       -0.07589   0.00448  -0.01807   0.00000  -0.01807  -0.09397
    Z4       -0.20564   0.00488   0.01761   0.00000   0.01761  -0.18803
    X5        0.85969   0.00445  -0.00579   0.00000  -0.00579   0.85391
    Y5        0.05871  -0.00134  -0.00269   0.00000  -0.00269   0.05602
    Z5       -0.12059  -0.00188  -0.04503   0.00000  -0.04503  -0.16562
    X6        3.52225  -0.00130  -0.03984   0.00000  -0.03984   3.48241
    Y6        0.99692  -0.00334   0.01274   0.00000   0.01274   1.00966
    Z6        1.06038  -0.00362   0.00213   0.00000   0.00213   1.06251
         Item               Value     Threshold  Converged?
 Maximum Force            0.004881     0.000450     NO 
 RMS     Force            0.002707     0.000300     NO 
 Maximum Displacement     0.045032     0.001800     NO 
 RMS     Displacement     0.019829     0.001200     NO 
 Predicted change in Energy=-5.753608D-05
 GradGradGradGradGradGradGradGradGradGradGradGradGradGradGradGradGradGrad

                          Input orientation:                          
 ---------------------------------------------------------------------
 Center     Atomic      Atomic             Coordinates (Angstroms)
 Number     Number       Type             X           Y           Z
 ---------------------------------------------------------------------
      1          8           0       -1.280352    0.014673    0.038836
      2          1           0       -1.737614   -0.798868    0.303287
      3          1           0       -1.909028    0.716822   -0.206021
      4          8           0        1.435632   -0.049726   -0.099501
      5          1           0        0.451867    0.029647   -0.087644
      6          1           0        1.842812    0.534291    0.562256
 ---------------------------------------------------------------------
                    Distance matrix (angstroms):
                    1          2          3          4          5
     1  O    0.000000
     2  H    0.969986   0.000000
     3  H    0.973756   1.608133   0.000000
     4  O    2.720268   3.285261   3.433030   0.000000
     5  H    1.736896   2.373413   2.461717   0.987033   0.000000
     6  H    3.209070   3.829338   3.834041   0.972005   1.616095
                    6
     6  H    0.000000
 Stoichiometry    H4O2
 Framework group  C1[X(H4O2)]
 Deg. of freedom    12
 Full point group                 C1      NOp   1
 Largest Abelian subgroup         C1      NOp   1
 Largest concise Abelian subgroup C1      NOp   1
                         Standard orientation:                         
 ---------------------------------------------------------------------
 Center     Atomic      Atomic             Coordinates (Angstroms)
 Number     Number       Type             X           Y           Z
 ---------------------------------------------------------------------
      1          8           0       -1.275197    0.013884    0.013216
      2          1           0       -1.743246   -0.807321    0.230987
      3          1           0       -1.894094    0.732203   -0.208563
      4          8           0        1.442186   -0.067162   -0.082271
      5          1           0        0.459008    0.019987   -0.083224
      6          1           0        1.842426    0.481347    0.613243
 ---------------------------------------------------------------------
 Rotational constants (GHZ):    245.3497033      7.2054914      7.1121192
 Standard basis: SDDAll (6D, 10F)
 There are    30 symmetry adapted cartesian basis functions of A   symmetry.
 There are    30 symmetry adapted basis functions of A   symmetry.
    30 basis functions,    54 primitive gaussians,    30 cartesian basis functions
     8 alpha electrons        8 beta electrons
       nuclear repulsion energy        26.0997255354 Hartrees.
 NAtoms=    6 NActive=    6 NUniq=    6 SFac= 1.00D+00 NAtFMM=   60 NAOKFM=F Big=F
 Integral buffers will be    131072 words long.
 Raffenetti 2 integral format.
 Two-electron integral symmetry is turned on.
 One-electron integrals computed using PRISM.
   1 Symmetry operations used in ECPInt.
 ECPInt:  NShTT=     171 NPrTT=     619 LenC2=     172 LenP2D=     564.
 LDataN:  DoStor=T MaxTD1= 4 Len=   56
 NBasis=    30 RedAO= T EigKep=  3.46D-02  NBF=    30
 NBsUse=    30 1.00D-06 EigRej= -1.00D+00 NBFU=    30
 Lowest energy guess from the checkpoint file:  "/tmp/Gau-14715.chk"
 B after Tr=     0.000000    0.000000    0.000000
         Rot=    0.999978   -0.006613   -0.000162    0.000128 Ang=  -0.76 deg.
 B after Tr=     0.000000    0.000000    0.000000
         Rot=    0.999956    0.009359    0.000223   -0.000159 Ang=   1.07 deg.
 Keep R1 ints in memory in canonical form, NReq=1237769.
 Requested convergence on RMS density matrix=1.00D-08 within 512 cycles.
 Requested convergence on MAX density matrix=1.00D-06.
 Requested convergence on             energy=1.00D-06.
 No special actions if energy rises.
 Integral accuracy reduced to 1.0D-05 until final iterations.
 Initial convergence to 1.0D-05 achieved.  Increase integral accuracy.
 SCF Done:  E(RPBE1PBE) =  -34.4135091823     A.U. after    8 cycles
            NFock=  8  Conv=0.15D-08     -V/T= 2.2662
   1 Symmetry operations used in ECPInt.
 ECPInt:  NShTT=     171 NPrTT=     619 LenC2=     172 LenP2D=     564.
 LDataN:  DoStor=T MaxTD1= 5 Len=  102
 Calling FoFJK, ICntrl=      2127 FMM=F ISym2X=0 I1Cent= 0 IOpClX= 0 NMat=1 NMatS=1 NMatT=0.
 ***** Axes restored to original set *****
 -------------------------------------------------------------------
 Center     Atomic                   Forces (Hartrees/Bohr)
 Number     Number              X              Y              Z
 -------------------------------------------------------------------
      1        8          -0.004710297    0.003433184    0.000231084
      2        1           0.001266516    0.000518113   -0.000591308
      3        1           0.003535349   -0.003543922    0.000455847
      4        8          -0.000964516    0.003389506    0.002553075
      5        1           0.001555089   -0.001327288   -0.000292999
      6        1          -0.000682141   -0.002469593   -0.002355699
 -------------------------------------------------------------------
 Cartesian Forces:  Max     0.004710297 RMS     0.002319383

 GradGradGradGradGradGradGradGradGradGradGradGradGradGradGradGradGradGrad
 Berny optimization.
 Search for a local minimum.
 Step number   5 out of a maximum of  100
 All quantities printed in internal units (Hartrees-Bohrs-Radians)
 Update second derivatives using D2CorN and points    1    2    3    5
 The second derivative matrix:
                          X1        Y1        Z1        X2        Y2
           X1           0.48305
           Y1          -0.04032   0.67116
           Z1          -0.02670  -0.21479   0.08690
           X2          -0.17915  -0.20185   0.08633   0.14635
           Y2          -0.17144  -0.36188   0.13547   0.17904   0.37460
           Z2           0.07291   0.15099  -0.06171  -0.07894  -0.14823
           X3          -0.27901   0.24791  -0.05208   0.02561  -0.01754
           Y3           0.21306  -0.30110   0.07773   0.02549  -0.01425
           Z3          -0.04148   0.06329  -0.02185  -0.01019   0.01069
           X4          -0.01102   0.00812  -0.00644   0.01079   0.00571
           Y4           0.00284   0.00345  -0.00274   0.00545   0.00125
           Z4           0.00152  -0.00236   0.00455   0.00110   0.00110
           X5          -0.00670  -0.00727   0.00150  -0.00441   0.00050
           Y5           0.00011  -0.01308   0.00310  -0.00642   0.00098
           Z5          -0.00203   0.00207  -0.00747   0.00308   0.00126
           X6          -0.00718  -0.00659  -0.00260   0.00080   0.00373
           Y6          -0.00426   0.00146   0.00123  -0.00171  -0.00071
           Z6          -0.00422   0.00080  -0.00043  -0.00137  -0.00029
                          Z2        X3        Y3        Z3        X4
           Z2           0.06126
           X3           0.00608   0.24264
           Y3          -0.00287  -0.23252   0.31377
           Z3           0.00026   0.04568  -0.07380   0.02031
           X4          -0.00215  -0.00639  -0.00324  -0.00158   0.61408
           Y4           0.00095   0.00133   0.00215   0.00564   0.05466
           Z4          -0.00042   0.00766   0.00105   0.00404   0.11833
           X5           0.00183   0.01488  -0.00261   0.00652  -0.50625
           Y5           0.00025   0.00097   0.00292  -0.00222   0.04570
           Z5           0.00127  -0.00568   0.00062   0.00063   0.00606
           X6           0.00027   0.00227  -0.00018   0.00104  -0.10122
           Y6          -0.00108  -0.00015  -0.00350  -0.00359  -0.11096
           Z6          -0.00066  -0.00167  -0.00273  -0.00339  -0.11422
                          Y4        Z4        X5        Y5        Z5
           Y4           0.28640
           Z4           0.27289   0.28700
           X5           0.02212  -0.03254   0.50672
           Y5          -0.04675  -0.02420  -0.01541   0.04262
           Z5          -0.03736  -0.05003   0.02389   0.01596   0.04085
           X6          -0.08641  -0.09606  -0.00425  -0.02496  -0.02532
           Y6          -0.24651  -0.24848   0.00267   0.01330   0.01745
           Z6          -0.23937  -0.24514  -0.00119   0.00711   0.01474
                          X6        Y6        Z6
           X6           0.10958
           Y6           0.11441   0.23596
           Z6           0.12267   0.23448   0.23488
 ITU=  0 -1  0 -1  0
     Eigenvalues ---   -0.00266  -0.00003   0.00000   0.00462   0.02178
     Eigenvalues ---    0.03920   0.15144   0.16096   0.81384   0.88352
     Eigenvalues ---    1.09820   1.11462
 RFO step:  Lambda=-2.72846103D-03 EMin=-2.65704572D-03
 I=     1 Eig=   -2.66D-03 Dot1= -8.04D-05
 I=     1 Stepn= -1.88D-01 RXN=   1.88D-01 EDone=F
 Mixed    1 eigenvectors in step.  Raw Step.Grad=  8.04D-05.
 RFO eigenvector is Hessian eigenvector with negative curvature.
 Taking step of  1.88D-01 in eigenvector direction(s).  Step.Grad=  4.84D-04.
 Quartic linear search produced a step of  0.00001.
 Maximum step size (   0.075) exceeded in Quadratic search.
    -- Step size scaled by   0.400
 TrRot=  0.000017  0.001768  0.004470  0.151943  0.000955 -0.152523
 Variable       Old X    -DE/DX   Delta X   Delta X   Delta X     New X
                                 (Linear)    (Quad)   (Total)
    X1       -2.41952  -0.00471   0.00000  -0.02113  -0.02100  -2.44052
    Y1        0.02773   0.00343   0.00000   0.00969   0.01289   0.04062
    Z1        0.07339   0.00023   0.00000   0.01962   0.02639   0.09978
    X2       -3.28361   0.00127   0.00000  -0.01905  -0.01939  -3.30301
    Y2       -1.50964   0.00052   0.00000  -0.00956  -0.00580  -1.51544
    Z2        0.57313  -0.00059   0.00000  -0.02318  -0.01537   0.55776
    X3       -3.60754   0.00354   0.00000  -0.03533  -0.03492  -3.64246
    Y3        1.35460  -0.00354   0.00000  -0.01091  -0.00709   1.34751
    Z3       -0.38932   0.00046   0.00000  -0.02091  -0.01320  -0.40252
    X4        2.71295  -0.00096   0.00000   0.02215   0.02193   2.73488
    Y4       -0.09397   0.00339   0.00000  -0.00138  -0.00122  -0.09519
    Z4       -0.18803   0.00255   0.00000   0.00027   0.00217  -0.18586
    X5        0.85391   0.00156   0.00000   0.02318   0.02308   0.87698
    Y5        0.05602  -0.00133   0.00000  -0.00005   0.00119   0.05721
    Z5       -0.16562  -0.00029   0.00000   0.00205   0.00568  -0.15994
    X6        3.48241  -0.00068   0.00000   0.02871   0.03031   3.51272
    Y6        1.00966  -0.00247   0.00000   0.00015   0.00003   1.00969
    Z6        1.06251  -0.00236   0.00000  -0.00668  -0.00567   1.05684
         Item               Value     Threshold  Converged?
 Maximum Force            0.004710     0.000450     NO 
 RMS     Force            0.002319     0.000300     NO 
 Maximum Displacement     0.034920     0.001800     NO 
 RMS     Displacement     0.017317     0.001200     NO 
 Predicted change in Energy=-3.910113D-05
 GradGradGradGradGradGradGradGradGradGradGradGradGradGradGradGradGradGrad

                          Input orientation:                          
 ---------------------------------------------------------------------
 Center     Atomic      Atomic             Coordinates (Angstroms)
 Number     Number       Type             X           Y           Z
 ---------------------------------------------------------------------
      1          8           0       -1.291467    0.021495    0.052802
      2          1           0       -1.747876   -0.801937    0.295153
      3          1           0       -1.927507    0.713071   -0.213004
      4          8           0        1.447236   -0.050373   -0.098354
      5          1           0        0.464080    0.030276   -0.084638
      6          1           0        1.858851    0.534307    0.559253
 ---------------------------------------------------------------------
                    Distance matrix (angstroms):
                    1          2          3          4          5
     1  O    0.000000
     2  H    0.972154   0.000000
     3  H    0.976461   1.608024   0.000000
     4  O    2.743812   3.305818   3.461919   0.000000
     5  H    1.760940   2.393651   2.490457   0.986554   0.000000
     6  H    3.231714   3.855357   3.868443   0.971455   1.616797
                    6
     6  H    0.000000
 Stoichiometry    H4O2
 Framework group  C1[X(H4O2)]
 Deg. of freedom    12
 Full point group                 C1      NOp   1
 Largest Abelian subgroup         C1      NOp   1
 Largest concise Abelian subgroup C1      NOp   1
                         Standard orientation:                         
 ---------------------------------------------------------------------
 Center     Atomic      Atomic             Coordinates (Angstroms)
 Number     Number       Type             X           Y           Z
 ---------------------------------------------------------------------
      1          8           0       -1.286676    0.016060    0.018567
      2          1           0       -1.752637   -0.814247    0.214922
      3          1           0       -1.913251    0.723110   -0.228332
      4          8           0        1.454000   -0.067592   -0.082432
      5          1           0        0.471260    0.019040   -0.084219
      6          1           0        1.856030    0.484355    0.608547
 ---------------------------------------------------------------------
 Rotational constants (GHZ):    245.2478125      7.0855602      6.9948545
 Standard basis: SDDAll (6D, 10F)
 There are    30 symmetry adapted cartesian basis functions of A   symmetry.
 There are    30 symmetry adapted basis functions of A   symmetry.
    30 basis functions,    54 primitive gaussians,    30 cartesian basis functions
     8 alpha electrons        8 beta electrons
       nuclear repulsion energy        25.9744386409 Hartrees.
 NAtoms=    6 NActive=    6 NUniq=    6 SFac= 1.00D+00 NAtFMM=   60 NAOKFM=F Big=F
 Integral buffers will be    131072 words long.
 Raffenetti 2 integral format.
 Two-electron integral symmetry is turned on.
 One-electron integrals computed using PRISM.
   1 Symmetry operations used in ECPInt.
 ECPInt:  NShTT=     171 NPrTT=     619 LenC2=     172 LenP2D=     564.
 LDataN:  DoStor=T MaxTD1= 4 Len=   56
 NBasis=    30 RedAO= T EigKep=  3.55D-02  NBF=    30
 NBsUse=    30 1.00D-06 EigRej= -1.00D+00 NBFU=    30
 Initial guess from the checkpoint file:  "/tmp/Gau-14715.chk"
 B after Tr=     0.000000    0.000000    0.000000
         Rot=    0.999999    0.001465   -0.000003   -0.000174 Ang=   0.17 deg.
 ExpMin= 7.02D-02 ExpMax= 4.71D+01 ExpMxC= 4.71D+01 IAcc=2 IRadAn=         4 AccDes= 0.00D+00
 Harris functional with IExCor= 1009 and IRadAn=       4 diagonalized for initial guess.
 HarFok:  IExCor= 1009 AccDes= 0.00D+00 IRadAn=         4 IDoV= 1 UseB2=F ITyADJ=14
 ICtDFT=  3500011 ScaDFX=  1.000000  1.000000  1.000000  1.000000
 FoFCou: FMM=F IPFlag=           0 FMFlag=      100000 FMFlg1=           0
         NFxFlg=           0 DoJE=T BraDBF=F KetDBF=T FulRan=T
         wScrn=  0.000000 ICntrl=     500 IOpCl=  0 I1Cent=   200000004 NGrid=           0
         NMat0=    1 NMatS0=      1 NMatT0=    0 NMatD0=    1 NMtDS0=    0 NMtDT0=    0
 Petite list used in FoFCou.
 Keep R1 ints in memory in canonical form, NReq=1237769.
 Requested convergence on RMS density matrix=1.00D-08 within 512 cycles.
 Requested convergence on MAX density matrix=1.00D-06.
 Requested convergence on             energy=1.00D-06.
 No special actions if energy rises.
 Integral accuracy reduced to 1.0D-05 until final iterations.
 Initial convergence to 1.0D-05 achieved.  Increase integral accuracy.
 SCF Done:  E(RPBE1PBE) =  -34.4134963178     A.U. after   10 cycles
            NFock= 10  Conv=0.55D-08     -V/T= 2.2669
   1 Symmetry operations used in ECPInt.
 ECPInt:  NShTT=     171 NPrTT=     619 LenC2=     172 LenP2D=     564.
 LDataN:  DoStor=T MaxTD1= 5 Len=  102
 Calling FoFJK, ICntrl=      2127 FMM=F ISym2X=0 I1Cent= 0 IOpClX= 0 NMat=1 NMatS=1 NMatT=0.
 ***** Axes restored to original set *****
 -------------------------------------------------------------------
 Center     Atomic                   Forces (Hartrees/Bohr)
 Number     Number              X              Y              Z
 -------------------------------------------------------------------
      1        8          -0.006833207    0.003121834   -0.000457004
      2        1           0.002419043    0.001885580   -0.000783222
      3        1           0.005369611   -0.004709927    0.001209555
      4        8          -0.001587082    0.002814379    0.001904207
      5        1           0.001486232   -0.000985722    0.000094858
      6        1          -0.000854597   -0.002126144   -0.001968393
 -------------------------------------------------------------------
 Cartesian Forces:  Max     0.006833207 RMS     0.002843391

 GradGradGradGradGradGradGradGradGradGradGradGradGradGradGradGradGradGrad
 Berny optimization.
 Search for a local minimum.
 Step number   6 out of a maximum of  100
 All quantities printed in internal units (Hartrees-Bohrs-Radians)
 Update second derivatives using D2CorN and points    1    2    3    6    5

 The second derivative matrix:
                          X1        Y1        Z1        X2        Y2
           X1           0.47907
           Y1          -0.03725   0.67244
           Z1          -0.01984  -0.21284   0.09076
           X2          -0.18031  -0.20426   0.08053   0.14956
           Y2          -0.17102  -0.36426   0.13028   0.18171   0.37627
           Z2           0.06872   0.15075  -0.06200  -0.07674  -0.14582
           X3          -0.28187   0.24383  -0.06109   0.03198  -0.01224
           Y3           0.20994  -0.29967   0.08103   0.02461  -0.01400
           Z3          -0.04387   0.06165  -0.02559  -0.00691   0.01334
           X4          -0.01011   0.00972  -0.00424   0.00764   0.00322
           Y4           0.00211   0.00462  -0.00021   0.00523   0.00111
           Z4           0.00116  -0.00100   0.00734   0.00027   0.00053
           X5          -0.00313  -0.00649   0.00413  -0.00667  -0.00220
           Y5           0.00041  -0.01398   0.00205  -0.00566   0.00148
           Z5          -0.00100   0.00161  -0.00800   0.00329   0.00099
           X6          -0.00364  -0.00555   0.00052  -0.00221   0.00054
           Y6          -0.00417   0.00084  -0.00031  -0.00164  -0.00060
           Z6          -0.00518  -0.00016  -0.00251  -0.00043   0.00068
                          Z2        X3        Y3        Z3        X4
           Z2           0.06047
           X3           0.00915   0.25368
           Y3          -0.00497  -0.23426   0.31209
           Z3           0.00140   0.05113  -0.07493   0.02287
           X4          -0.00275  -0.01263  -0.00177  -0.00360   0.61808
           Y4          -0.00036   0.00038   0.00151   0.00485   0.05571
           Z4          -0.00180   0.00533   0.00085   0.00283   0.11917
           X5           0.00169   0.01184  -0.00076   0.00469  -0.50468
           Y5           0.00073   0.00174   0.00339  -0.00186   0.04441
           Z5           0.00184  -0.00492   0.00114   0.00079   0.00646
           X6          -0.00007  -0.00300   0.00224  -0.00144  -0.09830
           Y6          -0.00032   0.00054  -0.00333  -0.00304  -0.11129
           Z6           0.00009   0.00041  -0.00312  -0.00229  -0.11504
                          Y4        Z4        X5        Y5        Z5
           Y4           0.28590
           Z4           0.27291   0.28717
           X5           0.02251  -0.03098   0.50655
           Y5          -0.04694  -0.02492  -0.01539   0.04248
           Z5          -0.03765  -0.05001   0.02232   0.01637   0.04038
           X6          -0.08593  -0.09495  -0.00391  -0.02552  -0.02614
           Y6          -0.24621  -0.24836   0.00233   0.01356   0.01754
           Z6          -0.23952  -0.24553  -0.00185   0.00762   0.01500
                          X6        Y6        Z6
           X6           0.11106
           Y6           0.11422   0.23573
           Z6           0.12209   0.23450   0.23524
 ITU=  0  0 -1  0 -1  0
 Energy rises -- skip Quadratic search.
 Quartic linear search produced a step of -0.63708.
 TrRot=  0.000000  0.000000  0.000000  0.000000  0.000000  0.000000
 Variable       Old X    -DE/DX   Delta X   Delta X   Delta X     New X
                                 (Linear)    (Quad)   (Total)
    X1       -2.44052  -0.00683   0.01338   0.00000   0.01338  -2.42714
    Y1        0.04062   0.00312  -0.00821   0.00000  -0.00821   0.03241
    Z1        0.09978  -0.00046  -0.01681   0.00000  -0.01681   0.08297
    X2       -3.30301   0.00242   0.01235   0.00000   0.01235  -3.29065
    Y2       -1.51544   0.00189   0.00369   0.00000   0.00369  -1.51175
    Z2        0.55776  -0.00078   0.00979   0.00000   0.00979   0.56755
    X3       -3.64246   0.00537   0.02225   0.00000   0.02225  -3.62021
    Y3        1.34751  -0.00471   0.00452   0.00000   0.00452   1.35202
    Z3       -0.40252   0.00121   0.00841   0.00000   0.00841  -0.39411
    X4        2.73488  -0.00159  -0.01397   0.00000  -0.01397   2.72091
    Y4       -0.09519   0.00281   0.00078   0.00000   0.00078  -0.09441
    Z4       -0.18586   0.00190  -0.00138   0.00000  -0.00138  -0.18724
    X5        0.87698   0.00149  -0.01470   0.00000  -0.01470   0.86228
    Y5        0.05721  -0.00099  -0.00076   0.00000  -0.00076   0.05646
    Z5       -0.15994   0.00009  -0.00362   0.00000  -0.00362  -0.16356
    X6        3.51272  -0.00085  -0.01931   0.00000  -0.01931   3.49341
    Y6        1.00969  -0.00213  -0.00002   0.00000  -0.00002   1.00968
    Z6        1.05684  -0.00197   0.00361   0.00000   0.00361   1.06045
         Item               Value     Threshold  Converged?
 Maximum Force            0.006833     0.000450     NO 
 RMS     Force            0.002843     0.000300     NO 
 Maximum Displacement     0.022247     0.001800     NO 
 RMS     Displacement     0.011032     0.001200     NO 
 Predicted change in Energy=-6.453669D-06
 GradGradGradGradGradGradGradGradGradGradGradGradGradGradGradGradGradGrad

                          Input orientation:                          
 ---------------------------------------------------------------------
 Center     Atomic      Atomic             Coordinates (Angstroms)
 Number     Number       Type             X           Y           Z
 ---------------------------------------------------------------------
      1          8           0       -1.284386    0.017149    0.043904
      2          1           0       -1.741338   -0.799982    0.300335
      3          1           0       -1.915734    0.715460   -0.208555
      4          8           0        1.439843   -0.049961   -0.099085
      5          1           0        0.456299    0.029875   -0.086553
      6          1           0        1.848633    0.534297    0.561166
 ---------------------------------------------------------------------
                    Distance matrix (angstroms):
                    1          2          3          4          5
     1  O    0.000000
     2  H    0.970703   0.000000
     3  H    0.974667   1.608089   0.000000
     4  O    2.728805   3.292716   3.443509   0.000000
     5  H    1.745613   2.380747   2.472136   0.986858   0.000000
     6  H    3.217267   3.838779   3.846525   0.971801   1.616346
                    6
     6  H    0.000000
 Stoichiometry    H4O2
 Framework group  C1[X(H4O2)]
 Deg. of freedom    12
 Full point group                 C1      NOp   1
 Largest Abelian subgroup         C1      NOp   1
 Largest concise Abelian subgroup C1      NOp   1
                         Standard orientation:                         
 ---------------------------------------------------------------------
 Center     Atomic      Atomic             Coordinates (Angstroms)
 Number     Number       Type             X           Y           Z
 ---------------------------------------------------------------------
      1          8           0       -1.279358    0.014669    0.015161
      2          1           0       -1.746664   -0.809846    0.225079
      3          1           0       -1.901060    0.728935   -0.215677
      4          8           0        1.446472   -0.067310   -0.082336
      5          1           0        0.463453    0.019648   -0.083589
      6          1           0        1.847355    0.482388    0.611582
 ---------------------------------------------------------------------
 Rotational constants (GHZ):    245.3460784      7.1616682      7.0692558
 Standard basis: SDDAll (6D, 10F)
 There are    30 symmetry adapted cartesian basis functions of A   symmetry.
 There are    30 symmetry adapted basis functions of A   symmetry.
    30 basis functions,    54 primitive gaussians,    30 cartesian basis functions
     8 alpha electrons        8 beta electrons
       nuclear repulsion energy        26.0545267299 Hartrees.
 NAtoms=    6 NActive=    6 NUniq=    6 SFac= 1.00D+00 NAtFMM=   60 NAOKFM=F Big=F
 Integral buffers will be    131072 words long.
 Raffenetti 2 integral format.
 Two-electron integral symmetry is turned on.
 One-electron integrals computed using PRISM.
[...]
     Eigenvalues ---    0.05415   0.15565   0.17281   0.74664   0.90419
     Eigenvalues ---    1.04311   1.10343
 RFO step:  Lambda=-2.67122410D-07 EMin= 1.30048026D-03
 Quartic linear search produced a step of -0.08192.
 TrRot=  0.000114  0.000422 -0.000245  0.000107  0.000022  0.000107
 Variable       Old X    -DE/DX   Delta X   Delta X   Delta X     New X
                                 (Linear)    (Quad)   (Total)
    X1       -2.44702   0.00003  -0.00007   0.00034   0.00038  -2.44664
    Y1        0.05205  -0.00003  -0.00017  -0.00071  -0.00098   0.05107
    Z1        0.27242   0.00000   0.00014  -0.00041  -0.00046   0.27196
    X2       -3.31791   0.00001  -0.00032  -0.00119  -0.00106  -3.31897
    Y2       -1.52605  -0.00001  -0.00011   0.00101   0.00061  -1.52544
    Z2        0.58889   0.00001  -0.00043   0.00327   0.00267   0.59156
    X3       -3.50894  -0.00004   0.00031   0.00129   0.00143  -3.50751
    Y3        1.25934   0.00005   0.00026  -0.00024  -0.00031   1.25902
    Z3       -0.60127  -0.00002   0.00018  -0.00109  -0.00108  -0.60235
    X4        2.64582  -0.00002  -0.00004   0.00002   0.00005   2.64588
    Y4        0.12566   0.00013  -0.00039   0.00212   0.00272   0.12838
    Z4       -0.33553   0.00025   0.00018  -0.00057  -0.00070  -0.33623
    X5        0.80552   0.00009   0.00002   0.00010   0.00021   0.80572
    Y5        0.12987  -0.00006  -0.00024  -0.00080  -0.00045   0.12942
    Z5       -0.05462  -0.00004   0.00035  -0.00183  -0.00175  -0.05637
    X6        3.56114  -0.00008   0.00010  -0.00108  -0.00101   3.56012
    Y6        0.80354  -0.00009   0.00065  -0.00343  -0.00159   0.80195
    Z6        1.09617  -0.00020  -0.00042   0.00205   0.00131   1.09748
         Item               Value     Threshold  Converged?
 Maximum Force            0.000252     0.000450     YES
 RMS     Force            0.000093     0.000300     YES
 Maximum Displacement     0.002719     0.001800     NO 
 RMS     Displacement     0.001285     0.001200     NO 
 Predicted change in Energy=-1.654171D-07
 GradGradGradGradGradGradGradGradGradGradGradGradGradGradGradGradGradGrad

                          Input orientation:                          
 ---------------------------------------------------------------------
 Center     Atomic      Atomic             Coordinates (Angstroms)
 Number     Number       Type             X           Y           Z
 ---------------------------------------------------------------------
      1          8           0       -1.294708    0.027027    0.143915
      2          1           0       -1.756322   -0.807229    0.313040
      3          1           0       -1.856096    0.666247   -0.318752
      4          8           0        1.400138    0.067935   -0.177923
      5          1           0        0.426370    0.068487   -0.029828
      6          1           0        1.883936    0.424374    0.580762
 ---------------------------------------------------------------------
                    Distance matrix (angstroms):
                    1          2          3          4          5
     1  O    0.000000
     2  H    0.968336   0.000000
     3  H    0.968411   1.606315   0.000000
     4  O    2.714304   3.312129   3.313739   0.000000
     5  H    1.730322   2.376675   2.377066   0.984965   0.000000
     6  H    3.233033   3.852273   3.854279   0.967839   1.619869
                    6
     6  H    0.000000
 Stoichiometry    H4O2
 Framework group  C1[X(H4O2)]
 Deg. of freedom    12
 Full point group                 C1      NOp   1
 Largest Abelian subgroup         C1      NOp   1
 Largest concise Abelian subgroup C1      NOp   1
                         Standard orientation:                         
 ---------------------------------------------------------------------
 Center     Atomic      Atomic             Coordinates (Angstroms)
 Number     Number       Type             X           Y           Z
 ---------------------------------------------------------------------
      1          8           0       -1.277482   -0.000052    0.056851
      2          1           0       -1.781556   -0.803587   -0.137865
      3          1           0       -1.783525    0.802726   -0.136248
      4          8           0        1.431477    0.000164   -0.113413
      5          1           0        0.451278    0.001607   -0.016642
      6          1           0        1.881846   -0.001639    0.743253
 ---------------------------------------------------------------------
 Rotational constants (GHZ):    241.0172350      7.2338672      7.1820972
 Standard basis: SDDAll (6D, 10F)
 There are    30 symmetry adapted cartesian basis functions of A   symmetry.
 There are    30 symmetry adapted basis functions of A   symmetry.
    30 basis functions,    54 primitive gaussians,    30 cartesian basis functions
     8 alpha electrons        8 beta electrons
       nuclear repulsion energy        26.1899740373 Hartrees.
 NAtoms=    6 NActive=    6 NUniq=    6 SFac= 1.00D+00 NAtFMM=   60 NAOKFM=F Big=F
 Integral buffers will be    131072 words long.
 Raffenetti 2 integral format.
 Two-electron integral symmetry is turned on.
 One-electron integrals computed using PRISM.
   1 Symmetry operations used in ECPInt.
 ECPInt:  NShTT=     171 NPrTT=     619 LenC2=     172 LenP2D=     566.
 LDataN:  DoStor=T MaxTD1= 4 Len=   56
 NBasis=    30 RedAO= T EigKep=  3.45D-02  NBF=    30
 NBsUse=    30 1.00D-06 EigRej= -1.00D+00 NBFU=    30
 Initial guess from the checkpoint file:  "/tmp/Gau-14715.chk"
 B after Tr=     0.000000    0.000000    0.000000
         Rot=    0.999994   -0.003505    0.000010    0.000045 Ang=  -0.40 deg.
 Keep R1 ints in memory in canonical form, NReq=1237769.
 Requested convergence on RMS density matrix=1.00D-08 within 512 cycles.
 Requested convergence on MAX density matrix=1.00D-06.
 Requested convergence on             energy=1.00D-06.
 No special actions if energy rises.
 SCF Done:  E(RPBE1PBE) =  -34.4139095138     A.U. after    7 cycles
            NFock=  7  Conv=0.54D-08     -V/T= 2.2647
   1 Symmetry operations used in ECPInt.
 ECPInt:  NShTT=     171 NPrTT=     619 LenC2=     172 LenP2D=     566.
 LDataN:  DoStor=T MaxTD1= 5 Len=  102
 Calling FoFJK, ICntrl=      2127 FMM=F ISym2X=0 I1Cent= 0 IOpClX= 0 NMat=1 NMatS=1 NMatT=0.
 ***** Axes restored to original set *****
 -------------------------------------------------------------------
 Center     Atomic                   Forces (Hartrees/Bohr)
 Number     Number              X              Y              Z
 -------------------------------------------------------------------
      1        8           0.000067494    0.000083747   -0.000039936
      2        1          -0.000047198   -0.000041226    0.000003286
      3        1          -0.000021523   -0.000028297    0.000016397
      4        8          -0.000010940    0.000013640   -0.000017024
      5        1          -0.000015956   -0.000039586    0.000020544
      6        1           0.000028123    0.000011722    0.000016732
 -------------------------------------------------------------------
 Cartesian Forces:  Max     0.000083747 RMS     0.000035498

 GradGradGradGradGradGradGradGradGradGradGradGradGradGradGradGradGradGrad
 Berny optimization.
 Search for a local minimum.
 Step number  39 out of a maximum of  100
 All quantities printed in internal units (Hartrees-Bohrs-Radians)
 Update second derivatives using D2CorN and points   21   23   22   24   25
                                                         26   27   28   30   29

                                                         31   33   32   34   36

                                                         35   37   38   39
 DE= -1.07D-07 DEPred=-1.65D-07 R= 6.49D-01
 Trust test= 6.49D-01 RLast= 5.45D-03 DXMaxT set to 5.00D-02
 The second derivative matrix:
                          X1        Y1        Z1        X2        Y2
           X1           0.47061
           Y1          -0.00555   0.65484
           Z1           0.09383  -0.22777   0.13034
           X2          -0.19655  -0.20997   0.03824   0.16908
           Y2          -0.19088  -0.37460   0.08536   0.20520   0.40375
           Z2           0.02519   0.12021  -0.04381  -0.06007  -0.11668
           X3          -0.25480   0.20838  -0.12872   0.03398  -0.00323
           Y3           0.19215  -0.26459   0.13669   0.01328  -0.02947
           Z3          -0.10509   0.10139  -0.07907   0.01672   0.02522
           X4          -0.03046   0.01387   0.01187  -0.01062  -0.00580
           Y4           0.01949  -0.01817   0.01676   0.02001   0.00336
           Z4           0.00307   0.03397   0.00974   0.00660  -0.01340
           X5           0.00218   0.00711  -0.00756   0.01275  -0.00326
           Y5           0.00039  -0.02575   0.00504  -0.01325   0.00682
           Z5           0.01211  -0.00028  -0.00973  -0.00664  -0.00083
           X6           0.00903  -0.01384  -0.00765  -0.00865  -0.00204
           Y6          -0.01560   0.02827  -0.01608  -0.01528  -0.00987
           Z6          -0.02911  -0.02753  -0.00747   0.00515   0.02033
                          Z2        X3        Y3        Z3        X4
           Z2           0.05080
           X3           0.02946   0.22008
           Y3          -0.01392  -0.20604   0.29182
           Z3          -0.00326   0.09096  -0.11356   0.07367
           X4          -0.02724   0.01294   0.00464  -0.00719   0.63242
           Y4          -0.03670  -0.03947   0.04595   0.01810   0.08245
           Z4          -0.05243  -0.01020   0.01334   0.04919   0.13092
           X5           0.01447  -0.00922  -0.00233   0.01792  -0.48369
           Y5           0.01492   0.01011  -0.00493  -0.01708   0.01352
           Z5           0.00477  -0.00745   0.00378  -0.00164   0.05782
           X6           0.01818  -0.00298  -0.00170  -0.01332  -0.12060
           Y6           0.03218   0.03025  -0.03877  -0.01407  -0.10869
           Z6           0.04393   0.02595  -0.02632  -0.03889  -0.16618
                          Y4        Z4        X5        Y5        Z5
           Y4           0.14492
           Z4           0.21819   0.35643
           X5          -0.00598  -0.00213   0.50259
           Y5          -0.05807  -0.06396  -0.00593   0.05639
           Z5          -0.02193  -0.05405  -0.02607   0.01701   0.04983
           X6          -0.07651  -0.12825  -0.02460  -0.00484  -0.02978
           Y6          -0.11799  -0.18814   0.01039   0.02555   0.00224
           Z6          -0.19442  -0.30887   0.00337   0.04406   0.01082
                          X6        Y6        Z6
           X6           0.14779
           Y6           0.09892   0.11282
           Z6           0.16082   0.18388   0.30048
 ITU=  0  0  0 -1  0  0 -1  0  0 -1  1  1  1 -1  1  0  0  1 -1
     Eigenvalues ---    0.00129   0.00297   0.00520   0.01531   0.04076
     Eigenvalues ---    0.05405   0.15595   0.17213   0.74683   0.90334
     Eigenvalues ---    1.04365   1.10341
 RFO step:  Lambda=-7.42209213D-08 EMin= 1.29392093D-03
 Quartic linear search produced a step of -0.16173.
 TrRot=  0.000009  0.000256 -0.000140  0.000045  0.000031  0.000045
 Variable       Old X    -DE/DX   Delta X   Delta X   Delta X     New X
                                 (Linear)    (Quad)   (Total)
    X1       -2.44664   0.00007  -0.00006   0.00006   0.00001  -2.44664
    Y1        0.05107   0.00008   0.00016  -0.00011   0.00008   0.05115
    Z1        0.27196  -0.00004   0.00007  -0.00009  -0.00008   0.27188
    X2       -3.31897  -0.00005   0.00017  -0.00073  -0.00039  -3.31936
    Y2       -1.52544  -0.00004  -0.00010   0.00043   0.00029  -1.52515
    Z2        0.59156   0.00000  -0.00043   0.00086   0.00039   0.59195
    X3       -3.50751  -0.00002  -0.00023   0.00029  -0.00006  -3.50758
    Y3        1.25902  -0.00003   0.00005  -0.00040  -0.00041   1.25862
    Z3       -0.60235   0.00002   0.00017  -0.00072  -0.00058  -0.60293
    X4        2.64588  -0.00001  -0.00001  -0.00005  -0.00007   2.64580
    Y4        0.12838   0.00001  -0.00044   0.00103   0.00109   0.12947
    Z4       -0.33623  -0.00002   0.00011  -0.00044  -0.00055  -0.33677
    X5        0.80572  -0.00002  -0.00003   0.00005   0.00002   0.80574
    Y5        0.12942  -0.00004   0.00007  -0.00094  -0.00054   0.12888
    Z5       -0.05637   0.00002   0.00028   0.00061   0.00072  -0.05564
    X6        3.56012   0.00003   0.00016   0.00037   0.00051   3.56063
    Y6        0.80195   0.00001   0.00026  -0.00135  -0.00051   0.80144
    Z6        1.09748   0.00002  -0.00021   0.00055   0.00009   1.09757
         Item               Value     Threshold  Converged?
 Maximum Force            0.000084     0.000450     YES
 RMS     Force            0.000035     0.000300     YES
 Maximum Displacement     0.001089     0.001800     YES
 RMS     Displacement     0.000456     0.001200     YES
 Predicted change in Energy=-4.971016D-08
 Optimization completed.
    -- Stationary point found.
 GradGradGradGradGradGradGradGradGradGradGradGradGradGradGradGradGradGrad

                          Input orientation:                          
 ---------------------------------------------------------------------
 Center     Atomic      Atomic             Coordinates (Angstroms)
 Number     Number       Type             X           Y           Z
 ---------------------------------------------------------------------
      1          8           0       -1.294708    0.027027    0.143915
      2          1           0       -1.756322   -0.807229    0.313040
      3          1           0       -1.856096    0.666247   -0.318752
      4          8           0        1.400138    0.067935   -0.177923
      5          1           0        0.426370    0.068487   -0.029828
      6          1           0        1.883936    0.424374    0.580762
 ---------------------------------------------------------------------
                    Distance matrix (angstroms):
                    1          2          3          4          5
     1  O    0.000000
     2  H    0.968336   0.000000
     3  H    0.968411   1.606315   0.000000
     4  O    2.714304   3.312129   3.313739   0.000000
     5  H    1.730322   2.376675   2.377066   0.984965   0.000000
     6  H    3.233033   3.852273   3.854279   0.967839   1.619869
                    6
     6  H    0.000000
 Stoichiometry    H4O2
 Framework group  C1[X(H4O2)]
 Deg. of freedom    12
 Full point group                 C1      NOp   1
 Largest Abelian subgroup         C1      NOp   1
 Largest concise Abelian subgroup C1      NOp   1
                         Standard orientation:                         
 ---------------------------------------------------------------------
 Center     Atomic      Atomic             Coordinates (Angstroms)
 Number     Number       Type             X           Y           Z
 ---------------------------------------------------------------------
      1          8           0       -1.277482   -0.000052    0.056851
      2          1           0       -1.781556   -0.803587   -0.137865
      3          1           0       -1.783525    0.802726   -0.136248
      4          8           0        1.431477    0.000164   -0.113413
      5          1           0        0.451278    0.001607   -0.016642
      6          1           0        1.881846   -0.001639    0.743253
 ---------------------------------------------------------------------
 Rotational constants (GHZ):    241.0172350      7.2338672      7.1820972

 **********************************************************************

            Population analysis using the SCF density.

 **********************************************************************

 Orbital symmetries:
       Occupied  (A) (A) (A) (A) (A) (A) (A) (A)
       Virtual   (A) (A) (A) (A) (A) (A) (A) (A) (A) (A) (A) (A)
                 (A) (A) (A) (A) (A) (A) (A) (A) (A) (A)
 The electronic state is 1-A.
 Alpha  occ. eigenvalues --   -1.08711  -1.00045  -0.60748  -0.53476  -0.42878
 Alpha  occ. eigenvalues --   -0.36801  -0.33074  -0.28579
 Alpha virt. eigenvalues --    0.02943   0.08689   0.09432   0.11985   0.15434
 Alpha virt. eigenvalues --    0.16346   0.18738   0.23278   0.24292   0.32571
 Alpha virt. eigenvalues --    0.88765   1.01309   1.09588   1.11774   1.14707
 Alpha virt. eigenvalues --    1.17203   1.19455   1.22522   1.26261   1.29628
 Alpha virt. eigenvalues --    2.00836   2.52550
          Condensed to atoms (all electrons):
               1          2          3          4          5          6
     1  O    6.314265   0.280616   0.280577  -0.018549  -0.000642   0.001612
     2  H    0.280616   0.306632  -0.021667   0.000268   0.000678  -0.000013
     3  H    0.280577  -0.021667   0.306686   0.000274   0.000678  -0.000013
     4  O   -0.018549   0.000268   0.000274   6.313993   0.277249   0.281171
     5  H   -0.000642   0.000678   0.000678   0.277249   0.281357  -0.023553
     6  H    0.001612  -0.000013  -0.000013   0.281171  -0.023553   0.359692
 Mulliken charges:
               1
     1  O   -0.857879
     2  H    0.433486
     3  H    0.433465
     4  O   -0.854406
     5  H    0.464231
     6  H    0.381103
 Sum of Mulliken charges =   0.00000
 Mulliken charges with hydrogens summed into heavy atoms:
               1
     1  O    0.009072
     4  O   -0.009072
 Electronic spatial extent (au):  <R**2>=            148.0887
 Charge=              0.0000 electrons
 Dipole moment (field-independent basis, Debye):
    X=             -4.2398    Y=             -0.0025    Z=              1.2688  Tot=              4.4256
 Quadrupole moment (field-independent basis, Debye-Ang):
   XX=             -9.1223   YY=            -11.8600   ZZ=            -14.1083
   XY=             -0.0087   XZ=              5.9549   YZ=              0.0007
 Traceless Quadrupole moment (field-independent basis, Debye-Ang):
   XX=              2.5745   YY=             -0.1632   ZZ=             -2.4114
   XY=             -0.0087   XZ=              5.9549   YZ=              0.0007
 Octapole moment (field-independent basis, Debye-Ang**2):
  XXX=            -17.7478  YYY=             -0.0055  ZZZ=              1.3512  XYY=             -7.5806
  XXY=             -0.0105  XXZ=              5.2783  XZZ=              1.2612  YZZ=             -0.0023
  YYZ=             -0.0047  XYZ=             -0.0126
 Hexadecapole moment (field-independent basis, Debye-Ang**3):
 XXXX=           -140.6612 YYYY=            -14.9364 ZZZZ=            -16.7021 XXXY=             -0.0708
 XXXZ=             22.7294 YYYX=             -0.0032 YYYZ=              0.0028 ZZZX=              5.3106
 ZZZY=             -0.0012 XXYY=            -24.6556 XXZZ=            -30.7687 YYZZ=             -5.6664
 XXYZ=              0.0007 YYXZ=              1.9709 ZZXY=             -0.0040
 N-N= 2.618997403731D+01 E-N=-1.345716080720D+02  KE= 2.721026387432D+01
 1\1\GINC-HUMAN\FOpt\RPBE1PBE\SDDAll\H4O2\HUMAN\25-Jul-2019\0\\# PBE1PB
 E/SDDAll scf=(maxcycle=512) opt=(cartesian,maxcycle=512)\\Cellular Aut
 omata job -34.4131413496\\0,1\O,-1.2947084858,0.0270266101,0.143914804
 9\H,-1.7563224561,-0.8072293465,0.3130396443\H,-1.8560958274,0.6662468
 23,-0.3187524197\O,1.400137655,0.0679345178,-0.1779228522\H,0.42636968
 4,0.0684867649,-0.0298278291\H,1.88393643,0.4243736309,0.5807616509\\V
 ersion=ES64L-G09RevD.01\State=1-A\HF=-34.4139095\RMSD=5.389e-09\RMSF=3
 .550e-05\Dipole=-1.6434351,0.1305651,0.560089\Quadrupole=2.2571978,-0.
 2410481,-2.0161497,1.8085555,3.8543875,-0.5577803\PG=C01 [X(H4O2)]\\@


 THE RARE EARTHS PERPLEX US IN OUR RESEARCHES,
 BAFFLE US IN OUR SPECULATIONS, AND HAUNT US IN OUR
 VERY DREAMS.  THEY STRETCH LIKE AN UNKNOWN BEFORE US,
 MOCKING, MYSTIFYING, AND MURMURING STRANGE REVELATIONS
 AND POSSIBILITIES.  -- SIR WILLIAM CROOKE, 1832-1919
 Job cpu time:       0 days  0 hours  2 minutes 14.6 seconds.
 File lengths (MBytes):  RWF=      5 Int=      0 D2E=      0 Chk=      1 Scr=      1
 Normal termination of Gaussian 09 at Thu Jul 25 18:24:46 2019.
